# Projected DOS for list 96 of 3 atoms, at iteration step i = 0, E(Fermi) =     0.101540 a.u.
#     MO Eigenvalue [a.u.]      Occupation                 s                 p                 d
       1         -0.708367        2.000000        0.00000000        0.00000000        0.00000000
       2         -0.696979        2.000000        0.00005486        0.00003902        0.00000025
       3         -0.695301        2.000000        0.00000044        0.00000036        0.00000000
       4         -0.694902        2.000000        0.00000000        0.00000000        0.00000000
       5         -0.690081        2.000000        0.00000000        0.00000000        0.00000000
       6         -0.686805        2.000000        0.00029454        0.00018089        0.00000156
       7         -0.686571        2.000000        0.00001349        0.00001171        0.00000009
       8         -0.685003        2.000000        0.00017709        0.00008520        0.00000055
       9         -0.684036        2.000000        0.00897795        0.00374694        0.00002879
      10         -0.683920        2.000000        0.00000000        0.00000000        0.00000000
      11         -0.681735        2.000000        0.00341529        0.00178314        0.00001629
      12         -0.679408        2.000000        0.00000063        0.00000324        0.00000001
      13         -0.678932        2.000000        0.00000000        0.00000000        0.00000000
      14         -0.678381        2.000000        0.00184119        0.00048568        0.00000733
      15         -0.677963        2.000000        0.00116506        0.00048054        0.00000562
      16         -0.677540        2.000000        0.00579359        0.00204187        0.00003437
      17         -0.677381        2.000000        0.00000000        0.00000000        0.00000000
      18         -0.677246        2.000000        0.00381793        0.00146266        0.00002232
      19         -0.675827        2.000000        0.00003578        0.00001917        0.00000045
      20         -0.675724        2.000000        0.00000000        0.00000000        0.00000000
      21         -0.674932        2.000000        0.00000000        0.00000000        0.00000000
      22         -0.674380        2.000000        0.00030593        0.00003825        0.00000054
      23         -0.673393        2.000000        0.00001273        0.00000473        0.00000002
      24         -0.672924        2.000000        0.00000000        0.00000000        0.00000000
      25         -0.672289        2.000000        0.00001516        0.00000191        0.00000004
      26         -0.672227        2.000000        0.00008743        0.00028682        0.00000174
      27         -0.671275        2.000000        0.00000000        0.00000001        0.00000000
      28         -0.670770        2.000000        0.00006920        0.00017042        0.00000141
      29         -0.670400        2.000000        0.00002512        0.00007941        0.00000045
      30         -0.669922        2.000000        0.00002289        0.00014547        0.00000077
      31         -0.669606        2.000000        0.00000239        0.00000097        0.00000001
      32         -0.668947        2.000000        0.00039775        0.00009860        0.00000158
      33         -0.668931        2.000000        0.00021445        0.00005998        0.00000090
      34         -0.668431        2.000000        0.00041921        0.00006299        0.00000098
      35         -0.668008        2.000000        0.00000372        0.00000537        0.00000016
      36         -0.667083        2.000000        0.00029030        0.00006443        0.00000102
      37         -0.666996        2.000000        0.00000001        0.00000001        0.00000000
      38         -0.666939        2.000000        0.00004683        0.00001894        0.00000031
      39         -0.666646        2.000000        0.00000418        0.00002509        0.00000028
      40         -0.666363        2.000000        0.00248367        0.00056404        0.00000793
      41         -0.666281        2.000000        0.00000011        0.00000022        0.00000000
      42         -0.666129        2.000000        0.00221003        0.00091589        0.00001278
      43         -0.665867        2.000000        0.00243067        0.00058995        0.00000886
      44         -0.664404        2.000000        0.00000517        0.00000284        0.00000003
      45         -0.664061        2.000000        0.00313774        0.00125335        0.00001880
      46         -0.663948        2.000000        0.00013194        0.00002974        0.00000050
      47         -0.663550        2.000000        0.00034606        0.00020976        0.00000124
      48         -0.662943        2.000000        0.00000002        0.00000001        0.00000000
      49         -0.662627        2.000000        0.00000352        0.00000093        0.00000000
      50         -0.661965        2.000000        0.00020748        0.00018107        0.00000192
      51         -0.661528        2.000000        0.00000017        0.00000002        0.00000000
      52         -0.660900        2.000000        0.00000301        0.00000111        0.00000001
      53         -0.660166        2.000000        0.00110127        0.00019516        0.00000279
      54         -0.659683        2.000000        0.00000064        0.00000012        0.00000000
      55         -0.658835        2.000000        0.00896963        0.00147375        0.00001765
      56         -0.658814        2.000000        0.00002815        0.00000500        0.00000006
      57         -0.658691        2.000000        0.00000211        0.00000080        0.00000001
      58         -0.658084        2.000000        0.00022496        0.00004263        0.00000018
      59         -0.658073        2.000000        0.00004129        0.00001294        0.00000005
      60         -0.657975        2.000000        0.00044538        0.00009294        0.00000029
      61         -0.657678        2.000000        0.00002473        0.00003014        0.00000006
      62         -0.657592        2.000000        0.00000265        0.00003975        0.00000093
      63         -0.657226        2.000000        0.00000107        0.00000011        0.00000000
      64         -0.657087        2.000000        0.00094246        0.00018184        0.00000126
      65         -0.656742        2.000000        0.00000684        0.00002130        0.00000021
      66         -0.656449        2.000000        0.00020549        0.00009037        0.00000055
      67         -0.656215        2.000000        0.00034374        0.00008653        0.00000050
      68         -0.655700        2.000000        0.00023893        0.00004995        0.00000038
      69         -0.655174        2.000000        0.00000338        0.00000067        0.00000001
      70         -0.654827        2.000000        0.00081690        0.00019606        0.00000324
      71         -0.654660        2.000000        0.00002445        0.00000487        0.00000004
      72         -0.654406        2.000000        0.00837123        0.00177611        0.00001768
      73         -0.654250        2.000000        0.00799640        0.00153034        0.00001652
      74         -0.653619        2.000000        0.00000377        0.00000158        0.00000001
      75         -0.653105        2.000000        0.00047118        0.00010258        0.00000057
      76         -0.652904        2.000000        0.00041455        0.00007462        0.00000055
      77         -0.652612        2.000000        0.00003725        0.00002300        0.00000016
      78         -0.652411        2.000000        0.00249085        0.00048912        0.00000312
      79         -0.652213        2.000000        0.00000717        0.00000187        0.00000001
      80         -0.652083        2.000000        0.00000755        0.00000950        0.00000003
      81         -0.651807        2.000000        0.00066349        0.00012733        0.00000112
      82         -0.651706        2.000000        0.00015266        0.00002918        0.00000024
      83         -0.651237        2.000000        0.00025284        0.00007208        0.00000070
      84         -0.651053        2.000000        0.00049471        0.00012533        0.00000104
      85         -0.650411        2.000000        0.00005572        0.00002529        0.00000008
      86         -0.650326        2.000000        0.00005991        0.00006103        0.00000040
      87         -0.650219        2.000000        0.00063342        0.00016151        0.00000120
      88         -0.650130        2.000000        0.00007215        0.00017203        0.00000146
      89         -0.649849        2.000000        0.00008746        0.00004724        0.00000011
      90         -0.649510        2.000000        0.00035537        0.00010451        0.00000081
      91         -0.648737        2.000000        0.00005627        0.00001934        0.00000019
      92         -0.648608        2.000000        0.00049765        0.00011633        0.00000076
      93         -0.648509        2.000000        0.00012628        0.00017326        0.00000167
      94         -0.648091        2.000000        0.00012539        0.00004128        0.00000034
      95         -0.647956        2.000000        0.00000077        0.00000017        0.00000000
      96         -0.647875        2.000000        0.00272769        0.00072173        0.00000268
      97         -0.647628        2.000000        0.00907102        0.00208639        0.00001169
      98         -0.647248        2.000000        0.00020345        0.00006346        0.00000110
      99         -0.646997        2.000000        0.00000758        0.00000204        0.00000001
     100         -0.646893        2.000000        0.00000971        0.00000228        0.00000001
     101         -0.646794        2.000000        0.25326267        0.06131442        0.00031851
     102         -0.645843        2.000000        0.08951618        0.02182381        0.00011886
     103         -0.645519        2.000000        0.07764116        0.01905336        0.00010564
     104         -0.645232        2.000000        0.01336011        0.00324278        0.00001921
     105         -0.644964        2.000000        0.02758606        0.00694534        0.00003932
     106         -0.644451        2.000000        0.02633704        0.00658801        0.00003789
     107         -0.644170        2.000000        0.00137030        0.00049142        0.00000479
     108         -0.643891        2.000000        0.00003216        0.00004742        0.00000030
     109         -0.643862        2.000000        0.01517583        0.00420046        0.00001465
     110         -0.643478        2.000000        0.00130619        0.00033623        0.00000201
     111         -0.643325        2.000000        0.00323165        0.00095157        0.00000333
     112         -0.642934        2.000000        0.00146955        0.00042332        0.00000162
     113         -0.642899        2.000000        0.00019680        0.00005461        0.00000019
     114         -0.642460        2.000000        0.00395255        0.00115353        0.00000512
     115         -0.642175        2.000000        0.00007721        0.00001571        0.00000024
     116         -0.642120        2.000000        0.00116595        0.00038801        0.00000084
     117         -0.641851        2.000000        0.00086891        0.00029278        0.00000087
     118         -0.641683        2.000000        0.00273389        0.00101417        0.00000184
     119         -0.641305        2.000000        0.00049243        0.00010722        0.00000145
     120         -0.641072        2.000000        0.00494104        0.00148090        0.00000535
     121         -0.640960        2.000000        0.00056406        0.00016597        0.00000067
     122         -0.640793        2.000000        0.00054805        0.00020419        0.00000032
     123         -0.640578        2.000000        0.00072298        0.00021630        0.00000187
     124         -0.640464        2.000000        0.00160921        0.00051537        0.00000175
     125         -0.640169        2.000000        0.00047893        0.00013780        0.00000067
     126         -0.639736        2.000000        0.00006124        0.00001711        0.00000045
     127         -0.639499        2.000000        0.00005359        0.00004835        0.00000206
     128         -0.639154        2.000000        0.00004506        0.00006137        0.00000214
     129         -0.639060        2.000000        0.00000753        0.00000324        0.00000010
     130         -0.638976        2.000000        0.00002934        0.00004694        0.00000175
     131         -0.638593        2.000000        0.00012557        0.00004180        0.00000141
     132         -0.638261        2.000000        0.00002176        0.00001457        0.00000014
     133         -0.638059        2.000000        0.00031128        0.00016008        0.00000044
     134         -0.637912        2.000000        0.00010273        0.00008240        0.00000147
     135         -0.637762        2.000000        0.00037113        0.00014207        0.00000048
     136         -0.637584        2.000000        0.00000079        0.00000161        0.00000002
     137         -0.636804        2.000000        0.00001319        0.00000903        0.00000003
     138         -0.636640        2.000000        0.00001937        0.00002181        0.00000017
     139         -0.636429        2.000000        0.00002067        0.00004274        0.00000054
     140         -0.635515        2.000000        0.00000698        0.00001629        0.00000021
     141         -0.634989        2.000000        0.00004990        0.00002586        0.00000003
     142         -0.634462        2.000000        0.00013245        0.00005800        0.00000016
     143         -0.634132        2.000000        0.00012402        0.00009857        0.00000055
     144         -0.633763        2.000000        0.00000841        0.00000227        0.00000004
     145         -0.633531        2.000000        0.00002708        0.00001660        0.00000004
     146         -0.632585        2.000000        0.00015479        0.00011050        0.00000033
     147         -0.632333        2.000000        0.00002504        0.00000892        0.00000006
     148         -0.632031        2.000000        0.00000224        0.00000112        0.00000000
     149         -0.631841        2.000000        0.00000020        0.00000199        0.00000002
     150         -0.631318        2.000000        0.00015619        0.00032101        0.00000237
     151         -0.630640        2.000000        0.00035208        0.00025353        0.00000053
     152         -0.630519        2.000000        0.00000199        0.00001711        0.00000038
     153         -0.630490        2.000000        0.00000117        0.00000566        0.00000013
     154         -0.629959        2.000000        0.00001500        0.00001335        0.00000003
     155         -0.629452        2.000000        0.00000257        0.00000585        0.00000006
     156         -0.629210        2.000000        0.00012313        0.00009282        0.00000025
     157         -0.628856        2.000000        0.00001456        0.00000850        0.00000002
     158         -0.628516        2.000000        0.00273793        0.00149931        0.00000342
     159         -0.628511        2.000000        0.00158036        0.00070337        0.00000223
     160         -0.628382        2.000000        0.00181044        0.00090920        0.00000244
     161         -0.628242        2.000000        0.00099857        0.00039720        0.00000185
     162         -0.628026        2.000000        0.00053763        0.00019319        0.00000141
     163         -0.627712        2.000000        0.00099047        0.00053321        0.00000120
     164         -0.627438        2.000000        0.00014201        0.00007062        0.00000178
     165         -0.627281        2.000000        0.00343463        0.00221718        0.00000432
     166         -0.626983        2.000000        0.00000485        0.00003141        0.00000116
     167         -0.626804        2.000000        0.00014679        0.00006511        0.00000035
     168         -0.626588        2.000000        0.00217636        0.00066889        0.00000734
     169         -0.626019        2.000000        0.00000378        0.00000205        0.00000000
     170         -0.625843        2.000000        0.00020551        0.00006926        0.00000202
     171         -0.625019        2.000000        0.00001966        0.00002698        0.00000033
     172         -0.624831        2.000000        0.00000296        0.00003361        0.00000101
     173         -0.624166        2.000000        0.00001246        0.00007421        0.00000248
     174         -0.623906        2.000000        0.00382880        0.01127087        0.00011587
     175         -0.623799        2.000000        0.00000196        0.00000524        0.00000027
     176         -0.623716        2.000000        0.00118298        0.00153610        0.00000757
     177         -0.623382        2.000000        0.00079573        0.00058318        0.00000199
     178         -0.623067        2.000000        0.00000712        0.00000873        0.00000032
     179         -0.622801        2.000000        0.00023532        0.00037965        0.00002118
     180         -0.622617        2.000000        0.00006049        0.00017141        0.00000432
     181         -0.622499        2.000000        0.00001351        0.00010088        0.00000156
     182         -0.621672        2.000000        0.03852474        0.02695955        0.00010327
     183         -0.621151        2.000000        0.00055355        0.00020555        0.00000542
     184         -0.620781        2.000000        0.02452166        0.01390516        0.00004422
     185         -0.620579        2.000000        0.00003949        0.00001205        0.00000033
     186         -0.619930        2.000000        0.00041767        0.00032111        0.00000108
     187         -0.618694        2.000000        0.00000746        0.00000603        0.00000010
     188         -0.618461        2.000000        0.00954349        0.00370730        0.00003855
     189         -0.618211        2.000000        0.00000473        0.00001083        0.00000013
     190         -0.617957        2.000000        0.00204794        0.00054583        0.00001899
     191         -0.617770        2.000000        0.01450128        0.00590205        0.00006145
     192         -0.617636        2.000000        0.00082232        0.00052320        0.00000173
     193         -0.617200        2.000000        0.00232438        0.00108898        0.00000714
     194         -0.616810        2.000000        0.00000163        0.00000123        0.00000001
     195         -0.615618        2.000000        0.00000518        0.00000379        0.00000013
     196         -0.615377        2.000000        0.00086285        0.00070993        0.00000208
     197         -0.615228        2.000000        0.00002520        0.00001034        0.00000060
     198         -0.614941        2.000000        0.00000783        0.00000644        0.00000002
     199         -0.613862        2.000000        0.00020406        0.00008761        0.00000092
     200         -0.613167        2.000000        0.00017399        0.00006956        0.00000119
     201         -0.612937        2.000000        0.00004484        0.00001699        0.00000044
     202         -0.612465        2.000000        0.00063522        0.00021014        0.00000446
     203         -0.611371        2.000000        0.00180193        0.00104422        0.00004315
     204         -0.611273        2.000000        0.00018454        0.00012634        0.00000547
     205         -0.610903        2.000000        0.00000072        0.00005151        0.00000243
     206         -0.609912        2.000000        0.01342769        0.00503646        0.00015971
     207         -0.609442        2.000000        0.00021650        0.00006394        0.00000300
     208         -0.609149        2.000000        0.00237083        0.00077394        0.00002579
     209         -0.608882        2.000000        0.00004803        0.00001428        0.00000062
     210         -0.608562        2.000000        0.00001369        0.00000647        0.00000024
     211         -0.608012        2.000000        0.00003061        0.00001331        0.00000110
     212         -0.607014        2.000000        0.00040995        0.00013814        0.00000733
     213         -0.606300        2.000000        0.00004103        0.00002761        0.00000020
     214         -0.605948        2.000000        0.00000419        0.00000614        0.00000015
     215         -0.605403        2.000000        0.00005171        0.00002685        0.00000117
     216         -0.604664        2.000000        0.00002987        0.00001372        0.00000019
     217         -0.604080        2.000000        0.00015709        0.00005818        0.00000211
     218         -0.603538        2.000000        0.00000883        0.00000427        0.00000013
     219         -0.603145        2.000000        0.00051380        0.00016600        0.00000757
     220         -0.602213        2.000000        0.00019977        0.00007788        0.00000358
     221         -0.601871        2.000000        0.00370227        0.00149195        0.00006882
     222         -0.600521        2.000000        0.00001716        0.00000850        0.00000035
     223         -0.599848        2.000000        0.00002377        0.00000961        0.00000047
     224         -0.598111        2.000000        0.00026330        0.00011513        0.00000548
     225         -0.597286        2.000000        0.00060301        0.00026922        0.00001346
     226         -0.597121        2.000000        0.00009020        0.00004136        0.00000201
     227         -0.595585        2.000000        0.00000239        0.00000109        0.00000006
     228         -0.591103        2.000000        0.00392042        0.00193852        0.00011045
     229         -0.582585        2.000000        0.00000006        0.00000004        0.00000000
     230         -0.576283        2.000000        0.00000002        0.00000001        0.00000000
     231         -0.258156        2.000000        0.00000000        0.00000000        0.00000000
     232         -0.253473        2.000000        0.00000558        0.00002325        0.00000046
     233         -0.246233        2.000000        0.00000004        0.00000017        0.00000000
     234         -0.244651        2.000000        0.00000013        0.00000067        0.00000001
     235         -0.243092        2.000000        0.00000015        0.00000074        0.00000001
     236         -0.242544        2.000000        0.00000000        0.00000000        0.00000000
     237         -0.241048        2.000000        0.00000164        0.00000858        0.00000011
     238         -0.240546        2.000000        0.00011231        0.00046734        0.00001438
     239         -0.237982        2.000000        0.00003542        0.00011307        0.00000302
     240         -0.237798        2.000000        0.00000001        0.00000003        0.00000000
     241         -0.236566        2.000000        0.00000022        0.00000115        0.00000001
     242         -0.235920        2.000000        0.00000018        0.00000092        0.00000001
     243         -0.233145        2.000000        0.00000000        0.00000000        0.00000000
     244         -0.232785        2.000000        0.00002023        0.00010753        0.00000057
     245         -0.232224        2.000000        0.00002089        0.00012221        0.00000096
     246         -0.232174        2.000000        0.00000000        0.00000001        0.00000000
     247         -0.232015        2.000000        0.00000001        0.00000003        0.00000000
     248         -0.230744        2.000000        0.00000003        0.00000017        0.00000000
     249         -0.230697        2.000000        0.00001516        0.00007886        0.00000044
     250         -0.229959        2.000000        0.00000010        0.00000054        0.00000001
     251         -0.229741        2.000000        0.00053427        0.00283365        0.00002865
     252         -0.228898        2.000000        0.00012197        0.00062730        0.00000779
     253         -0.227939        2.000000        0.00003397        0.00015687        0.00000244
     254         -0.227542        2.000000        0.00000033        0.00000376        0.00000005
     255         -0.227010        2.000000        0.00010377        0.00038229        0.00000842
     256         -0.226860        2.000000        0.00000000        0.00000003        0.00000000
     257         -0.226780        2.000000        0.00009767        0.00047423        0.00000666
     258         -0.226656        2.000000        0.00024227        0.00093284        0.00002263
     259         -0.226503        2.000000        0.00000000        0.00000001        0.00000000
     260         -0.226036        2.000000        0.00002931        0.00010598        0.00000262
     261         -0.225667        2.000000        0.00000000        0.00000000        0.00000000
     262         -0.225511        2.000000        0.00000021        0.00000070        0.00000002
     263         -0.224716        2.000000        0.00020825        0.00067892        0.00001777
     264         -0.224218        2.000000        0.00019670        0.00066934        0.00001660
     265         -0.223677        2.000000        0.00000005        0.00000021        0.00000000
     266         -0.223438        2.000000        0.00003968        0.00010840        0.00000217
     267         -0.223292        2.000000        0.00000042        0.00000531        0.00000004
     268         -0.223025        2.000000        0.00010905        0.00035890        0.00000909
     269         -0.222436        2.000000        0.00000088        0.00000534        0.00000010
     270         -0.222159        2.000000        0.00000000        0.00000001        0.00000000
     271         -0.221905        2.000000        0.00002703        0.00009304        0.00000104
     272         -0.221185        2.000000        0.00000001        0.00000003        0.00000000
     273         -0.220659        2.000000        0.00002420        0.00007411        0.00000087
     274         -0.219665        2.000000        0.00007095        0.00021381        0.00000483
     275         -0.219630        2.000000        0.00000235        0.00000755        0.00000016
     276         -0.218916        2.000000        0.00456871        0.01217842        0.00033174
     277         -0.218551        2.000000        0.00042836        0.00112501        0.00003259
     278         -0.218398        2.000000        0.00029446        0.00076983        0.00002260
     279         -0.218139        2.000000        0.00000129        0.00000375        0.00000009
     280         -0.217698        2.000000        0.00000129        0.00004792        0.00000012
     281         -0.217580        2.000000        0.00000014        0.00000039        0.00000002
     282         -0.217435        2.000000        0.00000996        0.00004924        0.00000064
     283         -0.216483        2.000000        0.00052330        0.00171147        0.00004097
     284         -0.216363        2.000000        0.00002146        0.00006058        0.00000131
     285         -0.216254        2.000000        0.00464812        0.01316334        0.00030047
     286         -0.215958        2.000000        0.00000021        0.00000080        0.00000002
     287         -0.215645        2.000000        0.00000078        0.00000336        0.00000007
     288         -0.215217        2.000000        0.00000312        0.00001650        0.00000055
     289         -0.214936        2.000000        0.00001389        0.00003897        0.00000104
     290         -0.214221        2.000000        0.00000670        0.00004532        0.00000171
     291         -0.213816        2.000000        0.00001343        0.00009045        0.00000132
     292         -0.213592        2.000000        0.00000002        0.00000011        0.00000000
     293         -0.213468        2.000000        0.00001922        0.00007656        0.00000289
     294         -0.213241        2.000000        0.00025303        0.00092375        0.00001980
     295         -0.213184        2.000000        0.00000055        0.00000272        0.00000007
     296         -0.212817        2.000000        0.00000039        0.00000116        0.00000003
     297         -0.212583        2.000000        0.00009181        0.00027846        0.00000680
     298         -0.212273        2.000000        0.00000005        0.00000019        0.00000000
     299         -0.211896        2.000000        0.00005623        0.00036717        0.00000371
     300         -0.211391        2.000000        0.00000381        0.00001321        0.00000038
     301         -0.211339        2.000000        0.00000086        0.00000486        0.00000020
     302         -0.211269        2.000000        0.00001022        0.00007306        0.00000104
     303         -0.211046        2.000000        0.00003256        0.00009151        0.00000223
     304         -0.210412        2.000000        0.00032055        0.00092292        0.00002240
     305         -0.210309        2.000000        0.00003945        0.00011594        0.00000273
     306         -0.210188        2.000000        0.00001272        0.00004518        0.00000108
     307         -0.210166        2.000000        0.00000057        0.00000766        0.00000014