# Projected DOS for list 130 of 3 atoms, at iteration step i = 0, E(Fermi) =     0.101540 a.u.
#     MO Eigenvalue [a.u.]      Occupation                 s                 p                 d
       1         -0.708367        2.000000        0.00000000        0.00000000        0.00000000
       2         -0.696979        2.000000        0.00000000        0.00000000        0.00000000
       3         -0.695301        2.000000        0.00000000        0.00000000        0.00000000
       4         -0.694902        2.000000        0.00005555        0.00003034        0.00000072
       5         -0.690081        2.000000        0.00058656        0.00019679        0.00000218
       6         -0.686805        2.000000        0.00000000        0.00000000        0.00000000
       7         -0.686571        2.000000        0.00000000        0.00000000        0.00000000
       8         -0.685003        2.000000        0.00000000        0.00000000        0.00000000
       9         -0.684036        2.000000        0.00000000        0.00000000        0.00000000
      10         -0.683920        2.000000        0.04072267        0.01056310        0.00018660
      11         -0.681735        2.000000        0.00000000        0.00000000        0.00000000
      12         -0.679408        2.000000        0.00000000        0.00000000        0.00000000
      13         -0.678932        2.000000        0.00000567        0.00000316        0.00000004
      14         -0.678381        2.000000        0.00000000        0.00000000        0.00000000
      15         -0.677963        2.000000        0.00000000        0.00000000        0.00000000
      16         -0.677540        2.000000        0.00000000        0.00000000        0.00000000
      17         -0.677381        2.000000        0.00003483        0.00000758        0.00000020
      18         -0.677246        2.000000        0.00000000        0.00000000        0.00000000
      19         -0.675827        2.000000        0.00000000        0.00000000        0.00000000
      20         -0.675724        2.000000        0.00320270        0.00063069        0.00001399
      21         -0.674932        2.000000        0.00003932        0.00000948        0.00000018
      22         -0.674380        2.000000        0.00000000        0.00000000        0.00000000
      23         -0.673393        2.000000        0.00000000        0.00000000        0.00000000
      24         -0.672924        2.000000        0.01918418        0.00346914        0.00007660
      25         -0.672289        2.000000        0.00000000        0.00000000        0.00000000
      26         -0.672227        2.000000        0.00000018        0.00000002        0.00000000
      27         -0.671275        2.000000        0.01198648        0.00178730        0.00004338
      28         -0.670770        2.000000        0.00000004        0.00000000        0.00000000
      29         -0.670400        2.000000        0.00000002        0.00000000        0.00000000
      30         -0.669922        2.000000        0.00000002        0.00000000        0.00000000
      31         -0.669606        2.000000        0.00044577        0.00006150        0.00000097
      32         -0.668947        2.000000        0.00011092        0.00002715        0.00000029
      33         -0.668931        2.000000        0.00015169        0.00004158        0.00000041
      34         -0.668431        2.000000        0.00000015        0.00000004        0.00000000
      35         -0.668008        2.000000        0.00000039        0.00000004        0.00000000
      36         -0.667083        2.000000        0.00000236        0.00000024        0.00000001
      37         -0.666996        2.000000        0.02019390        0.00216503        0.00006473
      38         -0.666939        2.000000        0.00000242        0.00000025        0.00000001
      39         -0.666646        2.000000        0.00000844        0.00000077        0.00000003
      40         -0.666363        2.000000        0.00000001        0.00000009        0.00000000
      41         -0.666281        2.000000        0.00106223        0.00027688        0.00000305
      42         -0.666129        2.000000        0.00000002        0.00000005        0.00000000
      43         -0.665867        2.000000        0.00000000        0.00000001        0.00000000
      44         -0.664404        2.000000        0.00027214        0.00010257        0.00000019
      45         -0.664061        2.000000        0.00001799        0.00000531        0.00000002
      46         -0.663948        2.000000        0.00095120        0.00029981        0.00000149
      47         -0.663550        2.000000        0.00001447        0.00000432        0.00000002
      48         -0.662943        2.000000        0.00143506        0.00041680        0.00000160
      49         -0.662627        2.000000        0.00000000        0.00000000        0.00000000
      50         -0.661965        2.000000        0.00001402        0.00000449        0.00000002
      51         -0.661528        2.000000        0.04999463        0.01585266        0.00005343
      52         -0.660900        2.000000        0.00109368        0.00046668        0.00000078
      53         -0.660166        2.000000        0.00000000        0.00000000        0.00000000
      54         -0.659683        2.000000        0.00422378        0.00092295        0.00001761
      55         -0.658835        2.000000        0.00000041        0.00000030        0.00000000
      56         -0.658814        2.000000        0.00533432        0.00173089        0.00002016
      57         -0.658691        2.000000        0.10830375        0.02689900        0.00034091
      58         -0.658084        2.000000        0.00673551        0.00214853        0.00001773
      59         -0.658073        2.000000        0.02026499        0.00647607        0.00005304
      60         -0.657975        2.000000        0.00007782        0.00002318        0.00000018
      61         -0.657678        2.000000        0.00002338        0.00000739        0.00000005
      62         -0.657592        2.000000        0.00001257        0.00000580        0.00000004
      63         -0.657226        2.000000        0.00896103        0.00303668        0.00002056
      64         -0.657087        2.000000        0.00000315        0.00000392        0.00000002
      65         -0.656742        2.000000        0.00001456        0.00003529        0.00000019
      66         -0.656449        2.000000        0.00004345        0.00004498        0.00000019
      67         -0.656215        2.000000        0.00015068        0.00016615        0.00000064
      68         -0.655700        2.000000        0.00012813        0.00019303        0.00000060
      69         -0.655174        2.000000        0.01001824        0.00309879        0.00003154
      70         -0.654827        2.000000        0.00003303        0.00000868        0.00000008
      71         -0.654660        2.000000        0.02020780        0.00487802        0.00005517
      72         -0.654406        2.000000        0.00006732        0.00001614        0.00000018
      73         -0.654250        2.000000        0.00002951        0.00000768        0.00000007
      74         -0.653619        2.000000        0.02294455        0.00723813        0.00006729
      75         -0.653105        2.000000        0.00209636        0.00080333        0.00000423
      76         -0.652904        2.000000        0.01456121        0.00645474        0.00003655
      77         -0.652612        2.000000        0.00015240        0.00007354        0.00000039
      78         -0.652411        2.000000        0.00000081        0.00000155        0.00000001
      79         -0.652213        2.000000        0.00023099        0.00020682        0.00000208
      80         -0.652083        2.000000        0.00265067        0.00108211        0.00000499
      81         -0.651807        2.000000        0.00193144        0.00046586        0.00000643
      82         -0.651706        2.000000        0.03400523        0.00987865        0.00008090
      83         -0.651237        2.000000        0.00019124        0.00007538        0.00000115
      84         -0.651053        2.000000        0.00005992        0.00014415        0.00000141
      85         -0.650411        2.000000        0.02598560        0.00689214        0.00004749
      86         -0.650326        2.000000        0.00003200        0.00010796        0.00000130
      87         -0.650219        2.000000        0.00163761        0.00040728        0.00000304
      88         -0.650130        2.000000        0.00823364        0.00197647        0.00001602
      89         -0.649849        2.000000        0.01874322        0.00472901        0.00003398
      90         -0.649510        2.000000        0.00120982        0.00029995        0.00000223
      91         -0.648737        2.000000        0.00008835        0.00001530        0.00000017
      92         -0.648608        2.000000        0.02712207        0.00697100        0.00004450
      93         -0.648509        2.000000        0.00118286        0.00030470        0.00000199
      94         -0.648091        2.000000        0.05332645        0.01364757        0.00009159
      95         -0.647956        2.000000        0.01466701        0.00411905        0.00002815
      96         -0.647875        2.000000        0.00024798        0.00006025        0.00000045
      97         -0.647628        2.000000        0.00010194        0.00002465        0.00000019
      98         -0.647248        2.000000        0.00000003        0.00000008        0.00000000
      99         -0.646997        2.000000        0.00330487        0.00080741        0.00000710
     100         -0.646893        2.000000        0.00052856        0.00015749        0.00000088
     101         -0.646794        2.000000        0.00000342        0.00000267        0.00000001
     102         -0.645843        2.000000        0.00080072        0.00072983        0.00000220
     103         -0.645519        2.000000        0.00032574        0.00024296        0.00000073
     104         -0.645232        2.000000        0.00059370        0.00038643        0.00000130
     105         -0.644964        2.000000        0.00002007        0.00001582        0.00000004
     106         -0.644451        2.000000        0.00014486        0.00029193        0.00000081
     107         -0.644170        2.000000        0.00001043        0.00001403        0.00000006
     108         -0.643891        2.000000        0.00007617        0.00034705        0.00000173
     109         -0.643862        2.000000        0.00008722        0.00007564        0.00000051
     110         -0.643478        2.000000        0.00005817        0.00001793        0.00000014
     111         -0.643325        2.000000        0.00096347        0.00029692        0.00000146
     112         -0.642934        2.000000        0.00325133        0.00336358        0.00001276
     113         -0.642899        2.000000        0.00000410        0.00000367        0.00000001
     114         -0.642460        2.000000        0.00000531        0.00000125        0.00000002
     115         -0.642175        2.000000        0.02409096        0.00588788        0.00004966
     116         -0.642120        2.000000        0.00022342        0.00006390        0.00000036
     117         -0.641851        2.000000        0.00082249        0.00020959        0.00000184
     118         -0.641683        2.000000        0.00084069        0.00025537        0.00000126
     119         -0.641305        2.000000        0.00140779        0.00042134        0.00000219
     120         -0.641072        2.000000        0.00000938        0.00002031        0.00000010
     121         -0.640960        2.000000        0.00014674        0.00012101        0.00000056
     122         -0.640793        2.000000        0.00021775        0.00033052        0.00000150
     123         -0.640578        2.000000        0.00019654        0.00006715        0.00000021
     124         -0.640464        2.000000        0.00104997        0.00045966        0.00000115
     125         -0.640169        2.000000        0.00170695        0.00057153        0.00000273
     126         -0.639736        2.000000        0.00038500        0.00029792        0.00000090
     127         -0.639499        2.000000        0.00028843        0.00008725        0.00000083
     128         -0.639154        2.000000        0.00089927        0.00054796        0.00000101
     129         -0.639060        2.000000        0.00666858        0.00219660        0.00001034
     130         -0.638976        2.000000        0.00102495        0.00027303        0.00000261
     131         -0.638593        2.000000        0.00012330        0.00011868        0.00000171
     132         -0.638261        2.000000        0.00003148        0.00000779        0.00000009
     133         -0.638059        2.000000        0.00001153        0.00002997        0.00000014
     134         -0.637912        2.000000        0.00049674        0.00018099        0.00000071
     135         -0.637762        2.000000        0.00016947        0.00005311        0.00000029
     136         -0.637584        2.000000        0.05349072        0.01518570        0.00010915
     137         -0.636804        2.000000        0.00004049        0.00001226        0.00000008
     138         -0.636640        2.000000        0.00217651        0.00067611        0.00000527
     139         -0.636429        2.000000        0.00849961        0.00227747        0.00002031
     140         -0.635515        2.000000        0.00460387        0.00124783        0.00001712
     141         -0.634989        2.000000        0.00071744        0.00024960        0.00000286
     142         -0.634462        2.000000        0.00007728        0.00002363        0.00000026
     143         -0.634132        2.000000        0.00009853        0.00005047        0.00000015
     144         -0.633763        2.000000        0.00560116        0.00196669        0.00001012
     145         -0.633531        2.000000        0.00000343        0.00000106        0.00000001
     146         -0.632585        2.000000        0.00011061        0.00003108        0.00000037
     147         -0.632333        2.000000        0.00029368        0.00008769        0.00000088
     148         -0.632031        2.000000        0.00092409        0.00027345        0.00000531
     149         -0.631841        2.000000        0.00000040        0.00000329        0.00000003
     150         -0.631318        2.000000        0.00004818        0.00002109        0.00000008
     151         -0.630640        2.000000        0.00025965        0.00011073        0.00000041
     152         -0.630519        2.000000        0.00002123        0.00000934        0.00000003
     153         -0.630490        2.000000        0.00000131        0.00000058        0.00000000
     154         -0.629959        2.000000        0.00009149        0.00012240        0.00000172
     155         -0.629452        2.000000        0.00002099        0.00010213        0.00000078
     156         -0.629210        2.000000        0.00000030        0.00000176        0.00000002
     157         -0.628856        2.000000        0.00480185        0.00128275        0.00001442
     158         -0.628516        2.000000        0.00000185        0.00000342        0.00000007
     159         -0.628511        2.000000        0.00001891        0.00001289        0.00000004
     160         -0.628382        2.000000        0.00004144        0.00001893        0.00000010
     161         -0.628242        2.000000        0.00076986        0.00021475        0.00000726
     162         -0.628026        2.000000        0.00141020        0.00040174        0.00001062
     163         -0.627712        2.000000        0.00024657        0.00007668        0.00000235
     164         -0.627438        2.000000        0.00000494        0.00002226        0.00000031
     165         -0.627281        2.000000        0.00010519        0.00004167        0.00000136
     166         -0.626983        2.000000        0.00002975        0.00006298        0.00000156
     167         -0.626804        2.000000        0.00086560        0.00033976        0.00000266
     168         -0.626588        2.000000        0.00006801        0.00002081        0.00000032
     169         -0.626019        2.000000        0.00110125        0.00040364        0.00000938
     170         -0.625843        2.000000        0.00005296        0.00001608        0.00000042
     171         -0.625019        2.000000        0.00000716        0.00000581        0.00000002
     172         -0.624831        2.000000        0.00094545        0.00034354        0.00000888
     173         -0.624166        2.000000        0.01314692        0.00413234        0.00007657
     174         -0.623906        2.000000        0.00019670        0.00006286        0.00000112
     175         -0.623799        2.000000        0.00093660        0.00030120        0.00000721
     176         -0.623716        2.000000        0.00015337        0.00004983        0.00000076
     177         -0.623382        2.000000        0.00220939        0.00070453        0.00001304
     178         -0.623067        2.000000        0.00000161        0.00000051        0.00000001
     179         -0.622801        2.000000        0.00038805        0.00012268        0.00000193
     180         -0.622617        2.000000        0.00209737        0.00067913        0.00001511
     181         -0.622499        2.000000        0.00018918        0.00006234        0.00000143
     182         -0.621672        2.000000        0.00001286        0.00000462        0.00000013
     183         -0.621151        2.000000        0.00005203        0.00002087        0.00000021
     184         -0.620781        2.000000        0.00018481        0.00008788        0.00000060
     185         -0.620579        2.000000        0.00001881        0.00003643        0.00000058
     186         -0.619930        2.000000        0.00000363        0.00002834        0.00000015
     187         -0.618694        2.000000        0.00000020        0.00000109        0.00000000
     188         -0.618461        2.000000        0.00042454        0.00159364        0.00000352
     189         -0.618211        2.000000        0.00000130        0.00001057        0.00000006
     190         -0.617957        2.000000        0.00006315        0.00015715        0.00000232
     191         -0.617770        2.000000        0.00005520        0.00032624        0.00000082
     192         -0.617636        2.000000        0.00020715        0.00010296        0.00000320
     193         -0.617200        2.000000        0.00002897        0.00004966        0.00000006
     194         -0.616810        2.000000        0.00080718        0.00047217        0.00000509
     195         -0.615618        2.000000        0.01004113        0.00360200        0.00009944
     196         -0.615377        2.000000        0.00012950        0.00004558        0.00000131
     197         -0.615228        2.000000        0.00925861        0.00333486        0.00009469
     198         -0.614941        2.000000        0.00000144        0.00000050        0.00000001
     199         -0.613862        2.000000        0.00005542        0.00001810        0.00000049
     200         -0.613167        2.000000        0.00002937        0.00002140        0.00000006
     201         -0.612937        2.000000        0.00000000        0.00000000        0.00000000
     202         -0.612465        2.000000        0.00000066        0.00000087        0.00000000
     203         -0.611371        2.000000        0.00065555        0.00026993        0.00001001
     204         -0.611273        2.000000        0.00728550        0.00292006        0.00010439
     205         -0.610903        2.000000        0.00027857        0.00011026        0.00000382
     206         -0.609912        2.000000        0.00000488        0.00000222        0.00000003
     207         -0.609442        2.000000        0.00000020        0.00000026        0.00000000
     208         -0.609149        2.000000        0.00002371        0.00001670        0.00000007
     209         -0.608882        2.000000        0.00003904        0.00003823        0.00000008
     210         -0.608562        2.000000        0.00783518        0.00650390        0.00001603
     211         -0.608012        2.000000        0.00000518        0.00000339        0.00000002
     212         -0.607014        2.000000        0.00000122        0.00000053        0.00000002
     213         -0.606300        2.000000        0.00000019        0.00000052        0.00000000
     214         -0.605948        2.000000        0.00000008        0.00000009        0.00000000
     215         -0.605403        2.000000        0.00000006        0.00000006        0.00000000
     216         -0.604664        2.000000        0.00000055        0.00000043        0.00000000
     217         -0.604080        2.000000        0.00000012        0.00000035        0.00000000
     218         -0.603538        2.000000        0.00000100        0.00000065        0.00000000
     219         -0.603145        2.000000        0.00000001        0.00000006        0.00000000
     220         -0.602213        2.000000        0.00000031        0.00000014        0.00000000
     221         -0.601871        2.000000        0.00000331        0.00000468        0.00000001
     222         -0.600521        2.000000        0.00000001        0.00000001        0.00000000
     223         -0.599848        2.000000        0.00000022        0.00000027        0.00000000
     224         -0.598111        2.000000        0.00000020        0.00000016        0.00000000
     225         -0.597286        2.000000        0.00000004        0.00000013        0.00000000
     226         -0.597121        2.000000        0.00000020        0.00000015        0.00000000
     227         -0.595585        2.000000        0.00000043        0.00000052        0.00000000
     228         -0.591103        2.000000        0.00000002        0.00000004        0.00000000
     229         -0.582585        2.000000        0.00000020        0.00000024        0.00000000
     230         -0.576283        2.000000        0.00000000        0.00000000        0.00000000
     231         -0.258156        2.000000        0.00000000        0.00000000        0.00000000
     232         -0.253473        2.000000        0.00000000        0.00000000        0.00000000
     233         -0.246233        2.000000        0.00000000        0.00000000        0.00000000
     234         -0.244651        2.000000        0.00000000        0.00000000        0.00000000
     235         -0.243092        2.000000        0.00000000        0.00000000        0.00000000
     236         -0.242544        2.000000        0.00000580        0.00002079        0.00000029
     237         -0.241048        2.000000        0.00000000        0.00000000        0.00000000
     238         -0.240546        2.000000        0.00000000        0.00000000        0.00000000
     239         -0.237982        2.000000        0.00000001        0.00000001        0.00000000
     240         -0.237798        2.000000        0.00004481        0.00012594        0.00000287
     241         -0.236566        2.000000        0.00000349        0.00001541        0.00000023
     242         -0.235920        2.000000        0.00000166        0.00000839        0.00000011
     243         -0.233145        2.000000        0.00028851        0.00140683        0.00001791
     244         -0.232785        2.000000        0.00000003        0.00000018        0.00000000
     245         -0.232224        2.000000        0.00000006        0.00000045        0.00000000
     246         -0.232174        2.000000        0.00800453        0.05601697        0.00069295
     247         -0.232015        2.000000        0.00631854        0.04680841        0.00058945
     248         -0.230744        2.000000        0.00408471        0.02096743        0.00040578
     249         -0.230697        2.000000        0.00001093        0.00005328        0.00000105
     250         -0.229959        2.000000        0.00041423        0.00329544        0.00004830
     251         -0.229741        2.000000        0.00000026        0.00000149        0.00000003
     252         -0.228898        2.000000        0.00000012        0.00000041        0.00000001
     253         -0.227939        2.000000        0.00000000        0.00000001        0.00000000
     254         -0.227542        2.000000        0.00000000        0.00000000        0.00000000
     255         -0.227010        2.000000        0.00000000        0.00000000        0.00000000
     256         -0.226860        2.000000        0.00012674        0.00049866        0.00000879
     257         -0.226780        2.000000        0.00000003        0.00000009        0.00000000
     258         -0.226656        2.000000        0.00000000        0.00000000        0.00000000
     259         -0.226503        2.000000        0.00044017        0.00135355        0.00002286
     260         -0.226036        2.000000        0.00000001        0.00000002        0.00000000
     261         -0.225667        2.000000        0.00003301        0.00015224        0.00000280
     262         -0.225511        2.000000        0.00000549        0.00001911        0.00000033
     263         -0.224716        2.000000        0.00000013        0.00000034        0.00000001
     264         -0.224218        2.000000        0.00000005        0.00000014        0.00000000
     265         -0.223677        2.000000        0.00043192        0.00140128        0.00002708
     266         -0.223438        2.000000        0.00000049        0.00000192        0.00000003
     267         -0.223292        2.000000        0.00000008        0.00000025        0.00000000
     268         -0.223025        2.000000        0.00000004        0.00000032        0.00000001
     269         -0.222436        2.000000        0.00000010        0.00000034        0.00000001
     270         -0.222159        2.000000        0.00009978        0.00087433        0.00001168
     271         -0.221905        2.000000        0.00000005        0.00000036        0.00000001
     272         -0.221185        2.000000        0.00013168        0.00036238        0.00000805
     273         -0.220659        2.000000        0.00000035        0.00000096        0.00000003
     274         -0.219665        2.000000        0.00000168        0.00000678        0.00000012
     275         -0.219630        2.000000        0.00024913        0.00068216        0.00001487
     276         -0.218916        2.000000        0.00001144        0.00002932        0.00000083
     277         -0.218551        2.000000        0.00223307        0.00576059        0.00015990
     278         -0.218398        2.000000        0.00200454        0.00532355        0.00014105
     279         -0.218139        2.000000        0.00083645        0.00631084        0.00006277
     280         -0.217698        2.000000        0.00002318        0.00017097        0.00000169
     281         -0.217580        2.000000        0.00148707        0.01045042        0.00012492
     282         -0.217435        2.000000        0.00005784        0.00031213        0.00000488
     283         -0.216483        2.000000        0.00001092        0.00004438        0.00000070
     284         -0.216363        2.000000        0.00125110        0.00532599        0.00008576
     285         -0.216254        2.000000        0.00000996        0.00003910        0.00000067
     286         -0.215958        2.000000        0.00021635        0.00074147        0.00001242
     287         -0.215645        2.000000        0.00033428        0.00167226        0.00002460
     288         -0.215217        2.000000        0.00000014        0.00000096        0.00000001
     289         -0.214936        2.000000        0.00000001        0.00000006        0.00000000
     290         -0.214221        2.000000        0.00000058        0.00000324        0.00000005
     291         -0.213816        2.000000        0.00000087        0.00000506        0.00000007
     292         -0.213592        2.000000        0.00020361        0.00140061        0.00001400
     293         -0.213468        2.000000        0.00000309        0.00002353        0.00000023
     294         -0.213241        2.000000        0.00000030        0.00000078        0.00000002
     295         -0.213184        2.000000        0.00034886        0.00241968        0.00002568
     296         -0.212817        2.000000        0.00046555        0.00307241        0.00003296
     297         -0.212583        2.000000        0.00000171        0.00001246        0.00000010
     298         -0.212273        2.000000        0.00015270        0.00065985        0.00001120
     299         -0.211896        2.000000        0.00000037        0.00000177        0.00000003
     300         -0.211391        2.000000        0.00013170        0.00038461        0.00000675
     301         -0.211339        2.000000        0.00006917        0.00019130        0.00000370
     302         -0.211269        2.000000        0.00002000        0.00005625        0.00000111
     303         -0.211046        2.000000        0.00023971        0.00076165        0.00001434
     304         -0.210412        2.000000        0.00015764        0.00046900        0.00000948
     305         -0.210309        2.000000        0.00107433        0.00298400        0.00006326
     306         -0.210188        2.000000        0.00082446        0.00252421        0.00005027
     307         -0.210166        2.000000        0.00091456        0.00268375        0.00005490