# Projected DOS for list 46 of 3 atoms, at iteration step i = 0, E(Fermi) =     0.101540 a.u.
#     MO Eigenvalue [a.u.]      Occupation                 s                 p                 d
       1         -0.708367        2.000000        0.00000000        0.00000000        0.00000000
       2         -0.696979        2.000000        0.00000000        0.00000000        0.00000000
       3         -0.695301        2.000000        0.00000000        0.00000000        0.00000000
       4         -0.694902        2.000000        0.00000000        0.00000000        0.00000000
       5         -0.690081        2.000000        0.00000001        0.00000001        0.00000000
       6         -0.686805        2.000000        0.00000004        0.00000004        0.00000000
       7         -0.686571        2.000000        0.00000000        0.00000000        0.00000000
       8         -0.685003        2.000000        0.00000000        0.00000000        0.00000000
       9         -0.684036        2.000000        0.00000015        0.00000010        0.00000000
      10         -0.683920        2.000000        0.00000000        0.00000000        0.00000000
      11         -0.681735        2.000000        0.00000055        0.00000042        0.00000000
      12         -0.679408        2.000000        0.00000001        0.00000001        0.00000000
      13         -0.678932        2.000000        0.00000024        0.00000017        0.00000001
      14         -0.678381        2.000000        0.00000014        0.00000005        0.00000000
      15         -0.677963        2.000000        0.00000011        0.00000007        0.00000000
      16         -0.677540        2.000000        0.00000006        0.00000022        0.00000000
      17         -0.677381        2.000000        0.00000005        0.00000004        0.00000000
      18         -0.677246        2.000000        0.00000001        0.00000012        0.00000000
      19         -0.675827        2.000000        0.00000001        0.00000005        0.00000000
      20         -0.675724        2.000000        0.00000029        0.00000015        0.00000001
      21         -0.674932        2.000000        0.00000032        0.00000015        0.00000001
      22         -0.674380        2.000000        0.00000055        0.00000010        0.00000000
      23         -0.673393        2.000000        0.00000106        0.00000049        0.00000001
      24         -0.672924        2.000000        0.00001036        0.00000411        0.00000016
      25         -0.672289        2.000000        0.00000004        0.00000009        0.00000000
      26         -0.672227        2.000000        0.00001876        0.00000491        0.00000012
      27         -0.671275        2.000000        0.00004089        0.00001342        0.00000053
      28         -0.670770        2.000000        0.00001356        0.00000525        0.00000008
      29         -0.670400        2.000000        0.00000303        0.00000145        0.00000002
      30         -0.669922        2.000000        0.00002253        0.00000789        0.00000013
      31         -0.669606        2.000000        0.00000711        0.00000049        0.00000004
      32         -0.668947        2.000000        0.00048832        0.00014697        0.00000264
      33         -0.668931        2.000000        0.00021753        0.00007946        0.00000124
      34         -0.668431        2.000000        0.00082623        0.00025006        0.00000453
      35         -0.668008        2.000000        0.00004614        0.00001006        0.00000038
      36         -0.667083        2.000000        0.00008966        0.00002100        0.00000046
      37         -0.666996        2.000000        0.00004979        0.00000961        0.00000026
      38         -0.666939        2.000000        0.00021591        0.00006426        0.00000117
      39         -0.666646        2.000000        0.03039814        0.00928244        0.00016766
      40         -0.666363        2.000000        0.00973873        0.00283282        0.00005302
      41         -0.666281        2.000000        0.00001955        0.00000765        0.00000013
      42         -0.666129        2.000000        0.00308566        0.00096904        0.00001731
      43         -0.665867        2.000000        0.00029735        0.00007266        0.00000154
      44         -0.664404        2.000000        0.00003761        0.00011665        0.00000196
      45         -0.664061        2.000000        0.00086772        0.00022253        0.00000455
      46         -0.663948        2.000000        0.00006670        0.00000831        0.00000016
      47         -0.663550        2.000000        0.00035851        0.00008302        0.00000187
      48         -0.662943        2.000000        0.00000070        0.00000148        0.00000002
      49         -0.662627        2.000000        0.00001584        0.00000363        0.00000007
      50         -0.661965        2.000000        0.00012309        0.00003059        0.00000055
      51         -0.661528        2.000000        0.00024290        0.00023868        0.00000406
      52         -0.660900        2.000000        0.00794863        0.00701855        0.00012998
      53         -0.660166        2.000000        0.00000059        0.00000097        0.00000001
      54         -0.659683        2.000000        0.00016802        0.00011870        0.00000252
      55         -0.658835        2.000000        0.00000183        0.00000457        0.00000006
      56         -0.658814        2.000000        0.00003436        0.00002150        0.00000054
      57         -0.658691        2.000000        0.00003244        0.00002378        0.00000074
      58         -0.658084        2.000000        0.00000731        0.00001326        0.00000009
      59         -0.658073        2.000000        0.00003219        0.00002640        0.00000012
      60         -0.657975        2.000000        0.00000099        0.00000414        0.00000017
      61         -0.657678        2.000000        0.00000501        0.00003083        0.00000020
      62         -0.657592        2.000000        0.00000296        0.00001132        0.00000012
      63         -0.657226        2.000000        0.00068102        0.00041060        0.00000729
      64         -0.657087        2.000000        0.00003788        0.00001865        0.00000014
      65         -0.656742        2.000000        0.00020909        0.00012351        0.00000195
      66         -0.656449        2.000000        0.00001655        0.00000610        0.00000008
      67         -0.656215        2.000000        0.00000170        0.00001226        0.00000009
      68         -0.655700        2.000000        0.00010080        0.00003898        0.00000064
      69         -0.655174        2.000000        0.00014459        0.00008247        0.00000122
      70         -0.654827        2.000000        0.00001257        0.00001396        0.00000007
      71         -0.654660        2.000000        0.00017563        0.00008732        0.00000102
      72         -0.654406        2.000000        0.00000274        0.00000663        0.00000006
      73         -0.654250        2.000000        0.00000776        0.00001823        0.00000013
      74         -0.653619        2.000000        0.00000132        0.00000752        0.00000007
      75         -0.653105        2.000000        0.00006043        0.00045887        0.00000438
      76         -0.652904        2.000000        0.00038586        0.00019241        0.00000278
      77         -0.652612        2.000000        0.00002403        0.00001157        0.00000014
      78         -0.652411        2.000000        0.00003708        0.00001602        0.00000018
      79         -0.652213        2.000000        0.00004104        0.00009404        0.00000097
      80         -0.652083        2.000000        0.00134898        0.00048280        0.00000394
      81         -0.651807        2.000000        0.00041284        0.00028217        0.00000345
      82         -0.651706        2.000000        0.00009009        0.00002756        0.00000016
      83         -0.651237        2.000000        0.00045459        0.00019430        0.00000153
      84         -0.651053        2.000000        0.00001866        0.00007198        0.00000066
      85         -0.650411        2.000000        0.00007656        0.00003441        0.00000023
      86         -0.650326        2.000000        0.00024074        0.00008587        0.00000028
      87         -0.650219        2.000000        0.00003723        0.00004273        0.00000021
      88         -0.650130        2.000000        0.00010010        0.00004223        0.00000092
      89         -0.649849        2.000000        0.00008380        0.00007520        0.00000147
      90         -0.649510        2.000000        0.00000135        0.00000989        0.00000044
      91         -0.648737        2.000000        0.00009555        0.00007340        0.00000270
      92         -0.648608        2.000000        0.00142381        0.00052956        0.00000341
      93         -0.648509        2.000000        0.00010684        0.00003534        0.00000032
      94         -0.648091        2.000000        0.00027544        0.00011966        0.00000092
      95         -0.647956        2.000000        0.00015703        0.00005996        0.00000073
      96         -0.647875        2.000000        0.00006289        0.00001991        0.00000009
      97         -0.647628        2.000000        0.00000295        0.00000193        0.00000007
      98         -0.647248        2.000000        0.00000354        0.00000300        0.00000013
      99         -0.646997        2.000000        0.00322193        0.00118055        0.00001047
     100         -0.646893        2.000000        0.00178073        0.00064206        0.00000549
     101         -0.646794        2.000000        0.00000461        0.00002355        0.00000144
     102         -0.645843        2.000000        0.00169321        0.00059570        0.00000343
     103         -0.645519        2.000000        0.00224555        0.00074457        0.00000726
     104         -0.645232        2.000000        0.02183378        0.00734466        0.00005649
     105         -0.644964        2.000000        0.00032985        0.00006903        0.00000068
     106         -0.644451        2.000000        0.00832075        0.00282419        0.00002099
     107         -0.644170        2.000000        0.00010464        0.00019337        0.00000145
     108         -0.643891        2.000000        0.00027696        0.00008079        0.00000014
     109         -0.643862        2.000000        0.00103834        0.00029377        0.00000065
     110         -0.643478        2.000000        0.00011647        0.00006801        0.00000033
     111         -0.643325        2.000000        0.00066672        0.00021644        0.00000144
     112         -0.642934        2.000000        0.00123237        0.00034948        0.00000077
     113         -0.642899        2.000000        0.00000029        0.00000074        0.00000001
     114         -0.642460        2.000000        0.00001166        0.00000447        0.00000020
     115         -0.642175        2.000000        0.00008344        0.00005560        0.00000015
     116         -0.642120        2.000000        0.00005949        0.00002716        0.00000096
     117         -0.641851        2.000000        0.00004071        0.00002076        0.00000128
     118         -0.641683        2.000000        0.00001054        0.00004869        0.00000380
     119         -0.641305        2.000000        0.00204838        0.00047965        0.00000481
     120         -0.641072        2.000000        0.00101742        0.00044389        0.00000278
     121         -0.640960        2.000000        0.00036624        0.00010366        0.00000069
     122         -0.640793        2.000000        0.00000439        0.00002215        0.00000076
     123         -0.640578        2.000000        0.00026859        0.00006379        0.00000041
     124         -0.640464        2.000000        0.00021296        0.00014955        0.00000027
     125         -0.640169        2.000000        0.00008002        0.00003328        0.00000070
     126         -0.639736        2.000000        0.00217827        0.00103579        0.00001994
     127         -0.639499        2.000000        0.00139726        0.00062264        0.00001417
     128         -0.639154        2.000000        0.00002334        0.00004938        0.00000183
     129         -0.639060        2.000000        0.00001420        0.00000540        0.00000001
     130         -0.638976        2.000000        0.00019021        0.00005652        0.00000056
     131         -0.638593        2.000000        0.01578079        0.00636658        0.00007645
     132         -0.638261        2.000000        0.00009952        0.00006741        0.00000086
     133         -0.638059        2.000000        0.00013942        0.00017254        0.00000444
     134         -0.637912        2.000000        0.00015719        0.00005159        0.00000045
     135         -0.637762        2.000000        0.00009232        0.00001875        0.00000026
     136         -0.637584        2.000000        0.00005357        0.00002460        0.00000054
     137         -0.636804        2.000000        0.00000980        0.00000626        0.00000013
     138         -0.636640        2.000000        0.00003309        0.00018044        0.00000294
     139         -0.636429        2.000000        0.00075071        0.00023351        0.00000510
     140         -0.635515        2.000000        0.00099656        0.00021656        0.00000183
     141         -0.634989        2.000000        0.00215276        0.00048133        0.00000385
     142         -0.634462        2.000000        0.00001105        0.00000886        0.00000019
     143         -0.634132        2.000000        0.00029916        0.00006197        0.00000135
     144         -0.633763        2.000000        0.00009154        0.00002717        0.00000088
     145         -0.633531        2.000000        0.00007179        0.00001548        0.00000015
     146         -0.632585        2.000000        0.00000200        0.00000467        0.00000013
     147         -0.632333        2.000000        0.03199163        0.00938332        0.00004317
     148         -0.632031        2.000000        0.00028909        0.00007907        0.00000057
     149         -0.631841        2.000000        0.00073744        0.00024848        0.00000096
     150         -0.631318        2.000000        0.00053185        0.00009465        0.00000202
     151         -0.630640        2.000000        0.00047113        0.00012239        0.00000080
     152         -0.630519        2.000000        0.00010162        0.00004093        0.00000011
     153         -0.630490        2.000000        0.00000510        0.00000505        0.00000001
     154         -0.629959        2.000000        0.00036481        0.00009786        0.00000054
     155         -0.629452        2.000000        0.00047965        0.00012463        0.00000087
     156         -0.629210        2.000000        0.00245637        0.00059605        0.00000463
     157         -0.628856        2.000000        0.00005150        0.00001542        0.00000007
     158         -0.628516        2.000000        0.02271487        0.00567831        0.00004042
     159         -0.628511        2.000000        0.00218767        0.00058238        0.00000376
     160         -0.628382        2.000000        0.00248771        0.00064721        0.00000382
     161         -0.628242        2.000000        0.00000802        0.00000329        0.00000005
     162         -0.628026        2.000000        0.02070880        0.00534258        0.00003583
     163         -0.627712        2.000000        0.00169420        0.00051847        0.00000248
     164         -0.627438        2.000000        0.00407777        0.00104351        0.00000815
     165         -0.627281        2.000000        0.02711981        0.00650173        0.00005945
     166         -0.626983        2.000000        0.00008095        0.00002642        0.00000015
     167         -0.626804        2.000000        0.00027330        0.00006710        0.00000096
     168         -0.626588        2.000000        0.03906219        0.00951735        0.00008492
     169         -0.626019        2.000000        0.00013982        0.00003285        0.00000037
     170         -0.625843        2.000000        0.10343865        0.02428832        0.00024727
     171         -0.625019        2.000000        0.05411348        0.01256093        0.00013707
     172         -0.624831        2.000000        0.00178269        0.00047747        0.00000375
     173         -0.624166        2.000000        0.00063937        0.00022395        0.00000087
     174         -0.623906        2.000000        0.00256752        0.00063156        0.00000700
     175         -0.623799        2.000000        0.00029115        0.00007447        0.00000059
     176         -0.623716        2.000000        0.12412413        0.03116891        0.00029648
     177         -0.623382        2.000000        0.00210504        0.00058525        0.00000538
     178         -0.623067        2.000000        0.00003087        0.00000830        0.00000007
     179         -0.622801        2.000000        0.01137832        0.00303777        0.00002625
     180         -0.622617        2.000000        0.00439505        0.00129898        0.00000672
     181         -0.622499        2.000000        0.05114987        0.01353756        0.00010770
     182         -0.621672        2.000000        0.01830156        0.00513715        0.00003533
     183         -0.621151        2.000000        0.00773044        0.00226458        0.00001338
     184         -0.620781        2.000000        0.00120950        0.00035470        0.00000205
     185         -0.620579        2.000000        0.00777722        0.00215905        0.00001708
     186         -0.619930        2.000000        0.00036085        0.00009466        0.00000174
     187         -0.618694        2.000000        0.00002941        0.00000800        0.00000007
     188         -0.618461        2.000000        0.00492638        0.00172730        0.00000737
     189         -0.618211        2.000000        0.00003386        0.00001140        0.00000006
     190         -0.617957        2.000000        0.00293784        0.00104705        0.00000441
     191         -0.617770        2.000000        0.00655038        0.00228087        0.00001090
     192         -0.617636        2.000000        0.00030088        0.00009003        0.00000144
     193         -0.617200        2.000000        0.00050859        0.00026543        0.00000069
     194         -0.616810        2.000000        0.00013823        0.00004824        0.00000028
     195         -0.615618        2.000000        0.00003571        0.00002088        0.00000125
     196         -0.615377        2.000000        0.00245151        0.00091916        0.00000540
     197         -0.615228        2.000000        0.00025551        0.00007754        0.00000273
     198         -0.614941        2.000000        0.00002378        0.00000942        0.00000006
     199         -0.613862        2.000000        0.00001540        0.00001154        0.00000005
     200         -0.613167        2.000000        0.00000791        0.00000481        0.00000021
     201         -0.612937        2.000000        0.00000037        0.00000020        0.00000000
     202         -0.612465        2.000000        0.00000415        0.00000107        0.00000004
     203         -0.611371        2.000000        0.00087455        0.00048256        0.00000053
     204         -0.611273        2.000000        0.00018086        0.00006751        0.00000050
     205         -0.610903        2.000000        0.00018179        0.00007922        0.00000448
     206         -0.609912        2.000000        0.00299807        0.00141213        0.00000349
     207         -0.609442        2.000000        0.00407466        0.00211627        0.00000475
     208         -0.609149        2.000000        0.00857641        0.00448904        0.00000943
     209         -0.608882        2.000000        0.00040980        0.00023028        0.00000040
     210         -0.608562        2.000000        0.00001045        0.00000610        0.00000001
     211         -0.608012        2.000000        0.00153272        0.00092836        0.00000089
     212         -0.607014        2.000000        0.01764374        0.01039546        0.00001753
     213         -0.606300        2.000000        0.00121597        0.00065665        0.00000084
     214         -0.605948        2.000000        0.00000511        0.00000494        0.00000003
     215         -0.605403        2.000000        0.00000903        0.00000644        0.00000001
     216         -0.604664        2.000000        0.00126387        0.00069206        0.00000092
     217         -0.604080        2.000000        0.00302114        0.00197923        0.00000307
     218         -0.603538        2.000000        0.00199752        0.00128607        0.00000124
     219         -0.603145        2.000000        0.01493135        0.01080670        0.00001700
     220         -0.602213        2.000000        0.00036622        0.00020383        0.00000028
     221         -0.601871        2.000000        0.00157723        0.00103540        0.00000153
     222         -0.600521        2.000000        0.00000704        0.00000463        0.00000000
     223         -0.599848        2.000000        0.00001131        0.00002198        0.00000017
     224         -0.598111        2.000000        0.00098791        0.00069031        0.00000106
     225         -0.597286        2.000000        0.00366765        0.00263721        0.00000348
     226         -0.597121        2.000000        0.00137680        0.00103028        0.00000156
     227         -0.595585        2.000000        0.00001491        0.00000925        0.00000040
     228         -0.591103        2.000000        0.00043703        0.00033084        0.00000050
     229         -0.582585        2.000000        0.00000001        0.00000001        0.00000000
     230         -0.576283        2.000000        0.00001642        0.00000937        0.00000012
     231         -0.258156        2.000000        0.00000000        0.00000000        0.00000000
     232         -0.253473        2.000000        0.00000000        0.00000000        0.00000000
     233         -0.246233        2.000000        0.00000000        0.00000000        0.00000000
     234         -0.244651        2.000000        0.00000000        0.00000000        0.00000000
     235         -0.243092        2.000000        0.00000000        0.00000000        0.00000000
     236         -0.242544        2.000000        0.00000000        0.00000000        0.00000000
     237         -0.241048        2.000000        0.00000000        0.00000000        0.00000000
     238         -0.240546        2.000000        0.00000003        0.00000032        0.00000000
     239         -0.237982        2.000000        0.00000020        0.00000120        0.00000000
     240         -0.237798        2.000000        0.00000000        0.00000000        0.00000000
     241         -0.236566        2.000000        0.00000000        0.00000000        0.00000000
     242         -0.235920        2.000000        0.00000000        0.00000000        0.00000000
     243         -0.233145        2.000000        0.00000001        0.00000003        0.00000000
     244         -0.232785        2.000000        0.00000001        0.00000011        0.00000000
     245         -0.232224        2.000000        0.00000000        0.00000001        0.00000000
     246         -0.232174        2.000000        0.00000000        0.00000001        0.00000000
     247         -0.232015        2.000000        0.00000000        0.00000000        0.00000000
     248         -0.230744        2.000000        0.00000000        0.00000001        0.00000000
     249         -0.230697        2.000000        0.00000000        0.00000000        0.00000000
     250         -0.229959        2.000000        0.00000000        0.00000002        0.00000000
     251         -0.229741        2.000000        0.00000001        0.00000006        0.00000000
     252         -0.228898        2.000000        0.00000007        0.00000073        0.00000000
     253         -0.227939        2.000000        0.00000416        0.00004438        0.00000021
     254         -0.227542        2.000000        0.00000043        0.00000481        0.00000002
     255         -0.227010        2.000000        0.00000006        0.00000053        0.00000000
     256         -0.226860        2.000000        0.00000010        0.00000066        0.00000001
     257         -0.226780        2.000000        0.00000054        0.00000551        0.00000003
     258         -0.226656        2.000000        0.00000014        0.00000065        0.00000001
     259         -0.226503        2.000000        0.00000002        0.00000009        0.00000000
     260         -0.226036        2.000000        0.00000001        0.00000014        0.00000000
     261         -0.225667        2.000000        0.00000001        0.00000006        0.00000000
     262         -0.225511        2.000000        0.00000150        0.00000860        0.00000003
     263         -0.224716        2.000000        0.00000002        0.00000013        0.00000000
     264         -0.224218        2.000000        0.00000004        0.00000019        0.00000000
     265         -0.223677        2.000000        0.00000001        0.00000004        0.00000000
     266         -0.223438        2.000000        0.00000005        0.00000028        0.00000000
     267         -0.223292        2.000000        0.00000051        0.00000319        0.00000006
     268         -0.223025        2.000000        0.00000000        0.00000002        0.00000000
     269         -0.222436        2.000000        0.00000001        0.00000002        0.00000000
     270         -0.222159        2.000000        0.00000000        0.00000000        0.00000000
     271         -0.221905        2.000000        0.00000003        0.00000036        0.00000000
     272         -0.221185        2.000000        0.00000103        0.00000613        0.00000007
     273         -0.220659        2.000000        0.00000004        0.00000034        0.00000000
     274         -0.219665        2.000000        0.00000019        0.00000083        0.00000001
     275         -0.219630        2.000000        0.00000155        0.00000943        0.00000011
     276         -0.218916        2.000000        0.00000015        0.00000064        0.00000002
     277         -0.218551        2.000000        0.00000015        0.00000100        0.00000002
     278         -0.218398        2.000000        0.00000002        0.00000012        0.00000000
     279         -0.218139        2.000000        0.00000003        0.00000047        0.00000002
     280         -0.217698        2.000000        0.00000027        0.00000155        0.00000003
     281         -0.217580        2.000000        0.00000038        0.00000432        0.00000015
     282         -0.217435        2.000000        0.00000001        0.00000013        0.00000000
     283         -0.216483        2.000000        0.00000044        0.00000163        0.00000003
     284         -0.216363        2.000000        0.00000520        0.00003972        0.00000114
     285         -0.216254        2.000000        0.00000046        0.00000333        0.00000008
     286         -0.215958        2.000000        0.00000132        0.00000985        0.00000028
     287         -0.215645        2.000000        0.00000034        0.00000579        0.00000021
     288         -0.215217        2.000000        0.00004798        0.00016379        0.00000435
     289         -0.214936        2.000000        0.00000035        0.00000125        0.00000003
     290         -0.214221        2.000000        0.00001355        0.00003947        0.00000095
     291         -0.213816        2.000000        0.00000351        0.00002774        0.00000079
     292         -0.213592        2.000000        0.00000030        0.00000197        0.00000003
     293         -0.213468        2.000000        0.00000652        0.00002293        0.00000051
     294         -0.213241        2.000000        0.00003667        0.00026688        0.00000651
     295         -0.213184        2.000000        0.00000048        0.00000202        0.00000003
     296         -0.212817        2.000000        0.00000015        0.00000083        0.00000001
     297         -0.212583        2.000000        0.00000172        0.00001582        0.00000049
     298         -0.212273        2.000000        0.00000028        0.00000567        0.00000020
     299         -0.211896        2.000000        0.00000064        0.00000424        0.00000010
     300         -0.211391        2.000000        0.00000066        0.00001905        0.00000020
     301         -0.211339        2.000000        0.00007233        0.00056670        0.00001531
     302         -0.211269        2.000000        0.00026080        0.00230869        0.00004165
     303         -0.211046        2.000000        0.00000234        0.00001088        0.00000011
     304         -0.210412        2.000000        0.00001580        0.00020763        0.00000207
     305         -0.210309        2.000000        0.00004105        0.00046827        0.00001107
     306         -0.210188        2.000000        0.00036301        0.00324467        0.00005214
     307         -0.210166        2.000000        0.00032437        0.00410491        0.00004963