# Projected DOS for list 145 of 3 atoms, at iteration step i = 0, E(Fermi) =     0.101540 a.u.
#     MO Eigenvalue [a.u.]      Occupation                 s                 p                 d
       1         -0.708367        2.000000        0.00000000        0.00000000        0.00000000
       2         -0.696979        2.000000        0.00000000        0.00000000        0.00000000
       3         -0.695301        2.000000        0.00000000        0.00000000        0.00000000
       4         -0.694902        2.000000        0.00000000        0.00000000        0.00000000
       5         -0.690081        2.000000        0.00000000        0.00000000        0.00000000
       6         -0.686805        2.000000        0.00000007        0.00000003        0.00000000
       7         -0.686571        2.000000        0.00000000        0.00000000        0.00000000
       8         -0.685003        2.000000        0.00000001        0.00000001        0.00000000
       9         -0.684036        2.000000        0.00000043        0.00000023        0.00000000
      10         -0.683920        2.000000        0.00000000        0.00000000        0.00000000
      11         -0.681735        2.000000        0.00000163        0.00000056        0.00000000
      12         -0.679408        2.000000        0.00000001        0.00000000        0.00000000
      13         -0.678932        2.000000        0.00000071        0.00000060        0.00000000
      14         -0.678381        2.000000        0.00000008        0.00000001        0.00000000
      15         -0.677963        2.000000        0.00000042        0.00000009        0.00000000
      16         -0.677540        2.000000        0.00000137        0.00000042        0.00000000
      17         -0.677381        2.000000        0.00000021        0.00000018        0.00000000
      18         -0.677246        2.000000        0.00000051        0.00000018        0.00000000
      19         -0.675827        2.000000        0.00000010        0.00000005        0.00000000
      20         -0.675724        2.000000        0.00000008        0.00000006        0.00000000
      21         -0.674932        2.000000        0.00000000        0.00000000        0.00000000
      22         -0.674380        2.000000        0.00000116        0.00000013        0.00000000
      23         -0.673393        2.000000        0.00000003        0.00000000        0.00000000
      24         -0.672924        2.000000        0.00000002        0.00000004        0.00000000
      25         -0.672289        2.000000        0.00000006        0.00000006        0.00000000
      26         -0.672227        2.000000        0.00003523        0.00001850        0.00000019
      27         -0.671275        2.000000        0.00000002        0.00000017        0.00000000
      28         -0.670770        2.000000        0.00000329        0.00000041        0.00000001
      29         -0.670400        2.000000        0.00000005        0.00000001        0.00000000
      30         -0.669922        2.000000        0.00000397        0.00000042        0.00000001
      31         -0.669606        2.000000        0.00026778        0.00011300        0.00000126
      32         -0.668947        2.000000        0.00005798        0.00001145        0.00000013
      33         -0.668931        2.000000        0.00000184        0.00000553        0.00000006
      34         -0.668431        2.000000        0.00001557        0.00000288        0.00000003
      35         -0.668008        2.000000        0.00000112        0.00000191        0.00000002
      36         -0.667083        2.000000        0.00000245        0.00000045        0.00000001
      37         -0.666996        2.000000        0.00000167        0.00000036        0.00000000
      38         -0.666939        2.000000        0.00000198        0.00000036        0.00000000
      39         -0.666646        2.000000        0.00008708        0.00003465        0.00000042
      40         -0.666363        2.000000        0.00004372        0.00001467        0.00000015
      41         -0.666281        2.000000        0.00000786        0.00000298        0.00000004
      42         -0.666129        2.000000        0.00000458        0.00001127        0.00000019
      43         -0.665867        2.000000        0.00001240        0.00000275        0.00000002
      44         -0.664404        2.000000        0.00002564        0.00000857        0.00000013
      45         -0.664061        2.000000        0.00001860        0.00001350        0.00000019
      46         -0.663948        2.000000        0.00278448        0.00073128        0.00001058
      47         -0.663550        2.000000        0.00000948        0.00000101        0.00000003
      48         -0.662943        2.000000        0.00001034        0.00000300        0.00000005
      49         -0.662627        2.000000        0.00000175        0.00000041        0.00000000
      50         -0.661965        2.000000        0.00006146        0.00000813        0.00000015
      51         -0.661528        2.000000        0.00008641        0.00001572        0.00000021
      52         -0.660900        2.000000        0.00001634        0.00001081        0.00000015
      53         -0.660166        2.000000        0.00000058        0.00000050        0.00000000
      54         -0.659683        2.000000        0.00000045        0.00000137        0.00000001
      55         -0.658835        2.000000        0.00000267        0.00001240        0.00000013
      56         -0.658814        2.000000        0.00000360        0.00000106        0.00000001
      57         -0.658691        2.000000        0.00003021        0.00000602        0.00000010
      58         -0.658084        2.000000        0.00055108        0.00006472        0.00000100
      59         -0.658073        2.000000        0.00028604        0.00005757        0.00000110
      60         -0.657975        2.000000        0.00114069        0.00011735        0.00000252
      61         -0.657678        2.000000        0.00058927        0.00007049        0.00000078
      62         -0.657592        2.000000        0.00001622        0.00002286        0.00000013
      63         -0.657226        2.000000        0.00001503        0.00000352        0.00000009
      64         -0.657087        2.000000        0.00088228        0.00013843        0.00000218
      65         -0.656742        2.000000        0.00744362        0.00103330        0.00001841
      66         -0.656449        2.000000        0.00019649        0.00003049        0.00000033
      67         -0.656215        2.000000        0.00188992        0.00020293        0.00000351
      68         -0.655700        2.000000        0.01463465        0.00233899        0.00003925
      69         -0.655174        2.000000        0.00003898        0.00000564        0.00000011
      70         -0.654827        2.000000        0.00055375        0.00008393        0.00000075
      71         -0.654660        2.000000        0.00000579        0.00000146        0.00000004
      72         -0.654406        2.000000        0.00006356        0.00001325        0.00000009
      73         -0.654250        2.000000        0.00037528        0.00007122        0.00000029
      74         -0.653619        2.000000        0.00094852        0.00012275        0.00000167
      75         -0.653105        2.000000        0.03920349        0.00529578        0.00005579
      76         -0.652904        2.000000        0.01704627        0.00240289        0.00002261
      77         -0.652612        2.000000        0.00032582        0.00003780        0.00000090
      78         -0.652411        2.000000        0.00163874        0.00024754        0.00000209
      79         -0.652213        2.000000        0.00513567        0.00080142        0.00000639
      80         -0.652083        2.000000        0.01799328        0.00330754        0.00001611
      81         -0.651807        2.000000        0.00772007        0.00177671        0.00000482
      82         -0.651706        2.000000        0.00040223        0.00011322        0.00000031
      83         -0.651237        2.000000        0.00010436        0.00039227        0.00000506
      84         -0.651053        2.000000        0.00001519        0.00015499        0.00000275
      85         -0.650411        2.000000        0.00609824        0.00121109        0.00002394
      86         -0.650326        2.000000        0.00496447        0.00111773        0.00001728
      87         -0.650219        2.000000        0.00006043        0.00019579        0.00000109
      88         -0.650130        2.000000        0.00105223        0.00011412        0.00000522
      89         -0.649849        2.000000        0.01563951        0.00223347        0.00004506
      90         -0.649510        2.000000        0.00278461        0.00113753        0.00001252
      91         -0.648737        2.000000        0.02046066        0.00462840        0.00007508
      92         -0.648608        2.000000        0.00492154        0.00108600        0.00002081
      93         -0.648509        2.000000        0.01041353        0.00270429        0.00002556
      94         -0.648091        2.000000        0.00292354        0.00054079        0.00000910
      95         -0.647956        2.000000        0.00006121        0.00001536        0.00000017
      96         -0.647875        2.000000        0.00053554        0.00009483        0.00000193
      97         -0.647628        2.000000        0.00233501        0.00043191        0.00000716
      98         -0.647248        2.000000        0.00199579        0.00033855        0.00000403
      99         -0.646997        2.000000        0.00011662        0.00001810        0.00000049
     100         -0.646893        2.000000        0.00003076        0.00000897        0.00000003
     101         -0.646794        2.000000        0.01006200        0.00208772        0.00001408
     102         -0.645843        2.000000        0.00569992        0.00142301        0.00000886
     103         -0.645519        2.000000        0.00303166        0.00050616        0.00000745
     104         -0.645232        2.000000        0.00045585        0.00008514        0.00000225
     105         -0.644964        2.000000        0.00206611        0.00065290        0.00000224
     106         -0.644451        2.000000        0.00124829        0.00035092        0.00000138
     107         -0.644170        2.000000        0.00401936        0.00138998        0.00000446
     108         -0.643891        2.000000        0.00000994        0.00005690        0.00000045
     109         -0.643862        2.000000        0.00071349        0.00014116        0.00000400
     110         -0.643478        2.000000        0.00167667        0.00040425        0.00000205
     111         -0.643325        2.000000        0.00144097        0.00038543        0.00000302
     112         -0.642934        2.000000        0.00419170        0.00122439        0.00000452
     113         -0.642899        2.000000        0.00000008        0.00000046        0.00000002
     114         -0.642460        2.000000        0.00062423        0.00013507        0.00000102
     115         -0.642175        2.000000        0.00539814        0.00141123        0.00000708
     116         -0.642120        2.000000        0.00307318        0.00070263        0.00000403
     117         -0.641851        2.000000        0.00143161        0.00051715        0.00000298
     118         -0.641683        2.000000        0.00157981        0.00032689        0.00000462
     119         -0.641305        2.000000        0.09192732        0.02533831        0.00011430
     120         -0.641072        2.000000        0.00322863        0.00088578        0.00000360
     121         -0.640960        2.000000        0.00008976        0.00008187        0.00000106
     122         -0.640793        2.000000        0.01601972        0.00426161        0.00002196
     123         -0.640578        2.000000        0.00257978        0.00071643        0.00000552
     124         -0.640464        2.000000        0.01221085        0.00356273        0.00001466
     125         -0.640169        2.000000        0.00131982        0.00025921        0.00000491
     126         -0.639736        2.000000        0.00086483        0.00020437        0.00000252
     127         -0.639499        2.000000        0.01407268        0.00283161        0.00003741
     128         -0.639154        2.000000        0.00407677        0.00093879        0.00000725
     129         -0.639060        2.000000        0.00020944        0.00008628        0.00000083
     130         -0.638976        2.000000        0.00545116        0.00124772        0.00001153
     131         -0.638593        2.000000        0.00395580        0.00079415        0.00001567
     132         -0.638261        2.000000        0.00059902        0.00014528        0.00000132
     133         -0.638059        2.000000        0.02663610        0.00931181        0.00001896
     134         -0.637912        2.000000        0.01310084        0.00498778        0.00001520
     135         -0.637762        2.000000        0.00174246        0.00062684        0.00000120
     136         -0.637584        2.000000        0.01142576        0.00372275        0.00001048
     137         -0.636804        2.000000        0.00399238        0.00112076        0.00000549
     138         -0.636640        2.000000        0.06036202        0.01794733        0.00007337
     139         -0.636429        2.000000        0.07941833        0.02287402        0.00010551
     140         -0.635515        2.000000        0.01078862        0.00272234        0.00002345
     141         -0.634989        2.000000        0.01618291        0.00481080        0.00003184
     142         -0.634462        2.000000        0.00244119        0.00046477        0.00001429
     143         -0.634132        2.000000        0.00346534        0.00145218        0.00000188
     144         -0.633763        2.000000        0.00199968        0.00062409        0.00000365
     145         -0.633531        2.000000        0.00001755        0.00000255        0.00000012
     146         -0.632585        2.000000        0.00013630        0.00003290        0.00000065
     147         -0.632333        2.000000        0.00117205        0.00034139        0.00000565
     148         -0.632031        2.000000        0.00000324        0.00000235        0.00000011
     149         -0.631841        2.000000        0.00041604        0.00011224        0.00000108
     150         -0.631318        2.000000        0.00115674        0.00037614        0.00000186
     151         -0.630640        2.000000        0.00000387        0.00002732        0.00000142
     152         -0.630519        2.000000        0.00000942        0.00003789        0.00000076
     153         -0.630490        2.000000        0.00000601        0.00001649        0.00000031
     154         -0.629959        2.000000        0.00002533        0.00001034        0.00000016
     155         -0.629452        2.000000        0.00000181        0.00001092        0.00000054
     156         -0.629210        2.000000        0.00010659        0.00001887        0.00000075
     157         -0.628856        2.000000        0.00000986        0.00000220        0.00000006
     158         -0.628516        2.000000        0.00137396        0.00034548        0.00000541
     159         -0.628511        2.000000        0.00095953        0.00020900        0.00000422
     160         -0.628382        2.000000        0.00001683        0.00000802        0.00000002
     161         -0.628242        2.000000        0.00011860        0.00003543        0.00000097
     162         -0.628026        2.000000        0.00217070        0.00053443        0.00000891
     163         -0.627712        2.000000        0.00006152        0.00010438        0.00000302
     164         -0.627438        2.000000        0.00017615        0.00003233        0.00000208
     165         -0.627281        2.000000        0.00040891        0.00011378        0.00000463
     166         -0.626983        2.000000        0.00174350        0.00039915        0.00000819
     167         -0.626804        2.000000        0.00010343        0.00002880        0.00000072
     168         -0.626588        2.000000        0.00195891        0.00036237        0.00001413
     169         -0.626019        2.000000        0.00000001        0.00000103        0.00000008
     170         -0.625843        2.000000        0.00604433        0.00138521        0.00004420
     171         -0.625019        2.000000        0.00250985        0.00069733        0.00002599
     172         -0.624831        2.000000        0.00109286        0.00029105        0.00000650
     173         -0.624166        2.000000        0.00010143        0.00003665        0.00000044
     174         -0.623906        2.000000        0.00037589        0.00038980        0.00000044
     175         -0.623799        2.000000        0.00011524        0.00002379        0.00000080
     176         -0.623716        2.000000        0.00283621        0.00067937        0.00004199
     177         -0.623382        2.000000        0.00001340        0.00004177        0.00000067
     178         -0.623067        2.000000        0.00000134        0.00000077        0.00000003
     179         -0.622801        2.000000        0.00048868        0.00014979        0.00000600
     180         -0.622617        2.000000        0.00012921        0.00004538        0.00000055
     181         -0.622499        2.000000        0.00004648        0.00008644        0.00000063
     182         -0.621672        2.000000        0.00103704        0.00031244        0.00000546
     183         -0.621151        2.000000        0.00026133        0.00010146        0.00000328
     184         -0.620781        2.000000        0.00029120        0.00017377        0.00000586
     185         -0.620579        2.000000        0.00187426        0.00071875        0.00001171
     186         -0.619930        2.000000        0.00015500        0.00036494        0.00000350
     187         -0.618694        2.000000        0.00001372        0.00000748        0.00000001
     188         -0.618461        2.000000        0.00019985        0.00007767        0.00000442
     189         -0.618211        2.000000        0.00000146        0.00000099        0.00000008
     190         -0.617957        2.000000        0.00029138        0.00004672        0.00000427
     191         -0.617770        2.000000        0.00041578        0.00016567        0.00000791
     192         -0.617636        2.000000        0.00035884        0.00008454        0.00000213
     193         -0.617200        2.000000        0.00009048        0.00009408        0.00000339
     194         -0.616810        2.000000        0.00045379        0.00015043        0.00000786
     195         -0.615618        2.000000        0.00022493        0.00007993        0.00000432
     196         -0.615377        2.000000        0.00013060        0.00004637        0.00000074
     197         -0.615228        2.000000        0.00000634        0.00000792        0.00000023
     198         -0.614941        2.000000        0.00000916        0.00000271        0.00000004
     199         -0.613862        2.000000        0.00085347        0.00034184        0.00002443
     200         -0.613167        2.000000        0.00071954        0.00024442        0.00001644
     201         -0.612937        2.000000        0.00001311        0.00002482        0.00000012
     202         -0.612465        2.000000        0.00018750        0.00121824        0.00003413
     203         -0.611371        2.000000        0.00224436        0.00374085        0.00000839
     204         -0.611273        2.000000        0.00043124        0.00032943        0.00000095
     205         -0.610903        2.000000        0.00024544        0.00009007        0.00000564
     206         -0.609912        2.000000        0.00050332        0.00252991        0.00002103
     207         -0.609442        2.000000        0.00009885        0.00093051        0.00002209
     208         -0.609149        2.000000        0.00447380        0.01551802        0.00009307
     209         -0.608882        2.000000        0.00020700        0.00049386        0.00000261
     210         -0.608562        2.000000        0.00003214        0.00004406        0.00000009
     211         -0.608012        2.000000        0.00037681        0.00062532        0.00001512
     212         -0.607014        2.000000        0.00009665        0.00372249        0.00027181
     213         -0.606300        2.000000        0.00001498        0.00014422        0.00000954
     214         -0.605948        2.000000        0.00001559        0.00000436        0.00000015
     215         -0.605403        2.000000        0.00001492        0.00000787        0.00000051
     216         -0.604664        2.000000        0.00053350        0.00020423        0.00000800
     217         -0.604080        2.000000        0.00496370        0.00211213        0.00003678
     218         -0.603538        2.000000        0.00494943        0.00199140        0.00002608
     219         -0.603145        2.000000        0.05984354        0.02168271        0.00034517
     220         -0.602213        2.000000        0.00057794        0.00021387        0.00000308
     221         -0.601871        2.000000        0.00267754        0.00098221        0.00002125
     222         -0.600521        2.000000        0.00004356        0.00003060        0.00000010
     223         -0.599848        2.000000        0.00038882        0.00012303        0.00000347
     224         -0.598111        2.000000        0.00005441        0.00028413        0.00002006
     225         -0.597286        2.000000        0.00706573        0.00220619        0.00006722
     226         -0.597121        2.000000        0.00482751        0.00143322        0.00004445
     227         -0.595585        2.000000        0.00000143        0.00000105        0.00000003
     228         -0.591103        2.000000        0.00070833        0.00021669        0.00000923
     229         -0.582585        2.000000        0.00000001        0.00000002        0.00000000
     230         -0.576283        2.000000        0.00000003        0.00000024        0.00000000
     231         -0.258156        2.000000        0.00000000        0.00000000        0.00000000
     232         -0.253473        2.000000        0.00000000        0.00000000        0.00000000
     233         -0.246233        2.000000        0.00000000        0.00000000        0.00000000
     234         -0.244651        2.000000        0.00000000        0.00000000        0.00000000
     235         -0.243092        2.000000        0.00000000        0.00000000        0.00000000
     236         -0.242544        2.000000        0.00000000        0.00000000        0.00000000
     237         -0.241048        2.000000        0.00000000        0.00000001        0.00000000
     238         -0.240546        2.000000        0.00000010        0.00000154        0.00000001
     239         -0.237982        2.000000        0.00000109        0.00000344        0.00000004
     240         -0.237798        2.000000        0.00000000        0.00000000        0.00000000
     241         -0.236566        2.000000        0.00000000        0.00000000        0.00000000
     242         -0.235920        2.000000        0.00000000        0.00000000        0.00000000
     243         -0.233145        2.000000        0.00000000        0.00000002        0.00000000
     244         -0.232785        2.000000        0.00000001        0.00000008        0.00000000
     245         -0.232224        2.000000        0.00000004        0.00000012        0.00000000
     246         -0.232174        2.000000        0.00000003        0.00000014        0.00000000
     247         -0.232015        2.000000        0.00000003        0.00000011        0.00000000
     248         -0.230744        2.000000        0.00000000        0.00000002        0.00000000
     249         -0.230697        2.000000        0.00000000        0.00000001        0.00000000
     250         -0.229959        2.000000        0.00000014        0.00000089        0.00000001
     251         -0.229741        2.000000        0.00000010        0.00000031        0.00000001
     252         -0.228898        2.000000        0.00000002        0.00000013        0.00000000
     253         -0.227939        2.000000        0.00000909        0.00002844        0.00000055
     254         -0.227542        2.000000        0.00000158        0.00000454        0.00000010
     255         -0.227010        2.000000        0.00000011        0.00000032        0.00000001
     256         -0.226860        2.000000        0.00000004        0.00000027        0.00000000
     257         -0.226780        2.000000        0.00000354        0.00001005        0.00000020
     258         -0.226656        2.000000        0.00000793        0.00002453        0.00000042
     259         -0.226503        2.000000        0.00000004        0.00000111        0.00000000
     260         -0.226036        2.000000        0.00000001        0.00000007        0.00000000
     261         -0.225667        2.000000        0.00000017        0.00000233        0.00000001
     262         -0.225511        2.000000        0.00003627        0.00060728        0.00000144
     263         -0.224716        2.000000        0.00000063        0.00000195        0.00000003
     264         -0.224218        2.000000        0.00000533        0.00001513        0.00000026
     265         -0.223677        2.000000        0.00000001        0.00000003        0.00000000
     266         -0.223438        2.000000        0.00005380        0.00015306        0.00000267
     267         -0.223292        2.000000        0.00127486        0.00371113        0.00006249
     268         -0.223025        2.000000        0.00000166        0.00000495        0.00000008
     269         -0.222436        2.000000        0.00000000        0.00000005        0.00000000
     270         -0.222159        2.000000        0.00000000        0.00000001        0.00000000
     271         -0.221905        2.000000        0.00000235        0.00000653        0.00000013
     272         -0.221185        2.000000        0.00000010        0.00000033        0.00000000
     273         -0.220659        2.000000        0.00000518        0.00001418        0.00000028
     274         -0.219665        2.000000        0.00000006        0.00000021        0.00000001
     275         -0.219630        2.000000        0.00000019        0.00000061        0.00000001
     276         -0.218916        2.000000        0.00000443        0.00001160        0.00000024
     277         -0.218551        2.000000        0.00000004        0.00000046        0.00000000
     278         -0.218398        2.000000        0.00000078        0.00000283        0.00000005
     279         -0.218139        2.000000        0.00001269        0.00005524        0.00000083
     280         -0.217698        2.000000        0.00001752        0.00004670        0.00000091
     281         -0.217580        2.000000        0.00001038        0.00004206        0.00000067
     282         -0.217435        2.000000        0.00001781        0.00004830        0.00000091
     283         -0.216483        2.000000        0.00089817        0.00240767        0.00004610
     284         -0.216363        2.000000        0.00003173        0.00008657        0.00000161
     285         -0.216254        2.000000        0.00004178        0.00011410        0.00000217
     286         -0.215958        2.000000        0.00002112        0.00005581        0.00000113
     287         -0.215645        2.000000        0.00000024        0.00000063        0.00000002
     288         -0.215217        2.000000        0.06429053        0.17097731        0.00329614
     289         -0.214936        2.000000        0.00057214        0.00151225        0.00002951
     290         -0.214221        2.000000        0.01752211        0.04637693        0.00089576
     291         -0.213816        2.000000        0.00189034        0.00504711        0.00009591
     292         -0.213592        2.000000        0.00002133        0.00005670        0.00000109
     293         -0.213468        2.000000        0.00543043        0.01437436        0.00027683
     294         -0.213241        2.000000        0.00001220        0.00003765        0.00000056
     295         -0.213184        2.000000        0.00002731        0.00007090        0.00000149
     296         -0.212817        2.000000        0.00000126        0.00000338        0.00000008
     297         -0.212583        2.000000        0.00251924        0.00680754        0.00012591
     298         -0.212273        2.000000        0.00001238        0.00003420        0.00000060
     299         -0.211896        2.000000        0.00050804        0.00135446        0.00002602
     300         -0.211391        2.000000        0.00451690        0.01213711        0.00022463
     301         -0.211339        2.000000        0.01200846        0.03228100        0.00060893
     302         -0.211269        2.000000        0.00403773        0.01127617        0.00019256
     303         -0.211046        2.000000        0.00054939        0.00148010        0.00002682
     304         -0.210412        2.000000        0.00033493        0.00088625        0.00001682
     305         -0.210309        2.000000        0.00003431        0.00009422        0.00000139
     306         -0.210188        2.000000        0.00011583        0.00033454        0.00000438
     307         -0.210166        2.000000        0.00040319        0.00109219        0.00001855