# Projected DOS for list 107 of 3 atoms, at iteration step i = 0, E(Fermi) =     0.101540 a.u.
#     MO Eigenvalue [a.u.]      Occupation                 s                 p                 d
       1         -0.708367        2.000000        0.00000000        0.00000000        0.00000000
       2         -0.696979        2.000000        0.00000000        0.00000000        0.00000000
       3         -0.695301        2.000000        0.00000000        0.00000000        0.00000000
       4         -0.694902        2.000000        0.00035171        0.00025700        0.00000518
       5         -0.690081        2.000000        0.00012323        0.00006978        0.00000034
       6         -0.686805        2.000000        0.00000000        0.00000000        0.00000000
       7         -0.686571        2.000000        0.00000000        0.00000000        0.00000000
       8         -0.685003        2.000000        0.00000000        0.00000000        0.00000000
       9         -0.684036        2.000000        0.00000000        0.00000000        0.00000000
      10         -0.683920        2.000000        0.00374437        0.00157267        0.00001748
      11         -0.681735        2.000000        0.00000000        0.00000000        0.00000000
      12         -0.679408        2.000000        0.00000000        0.00000000        0.00000000
      13         -0.678932        2.000000        0.00004146        0.00003638        0.00000038
      14         -0.678381        2.000000        0.00000000        0.00000000        0.00000000
      15         -0.677963        2.000000        0.00000000        0.00000000        0.00000000
      16         -0.677540        2.000000        0.00000000        0.00000000        0.00000000
      17         -0.677381        2.000000        0.00001817        0.00003187        0.00000026
      18         -0.677246        2.000000        0.00000000        0.00000000        0.00000000
      19         -0.675827        2.000000        0.00000000        0.00000000        0.00000000
      20         -0.675724        2.000000        0.00020576        0.00011974        0.00000226
      21         -0.674932        2.000000        0.00009068        0.00002466        0.00000023
      22         -0.674380        2.000000        0.00000000        0.00000000        0.00000000
      23         -0.673393        2.000000        0.00000000        0.00000000        0.00000000
      24         -0.672924        2.000000        0.00137025        0.00064719        0.00001385
      25         -0.672289        2.000000        0.00000000        0.00000000        0.00000000
      26         -0.672227        2.000000        0.00000011        0.00000003        0.00000000
      27         -0.671275        2.000000        0.00091933        0.00041309        0.00000901
      28         -0.670770        2.000000        0.00000001        0.00000000        0.00000000
      29         -0.670400        2.000000        0.00000001        0.00000000        0.00000000
      30         -0.669922        2.000000        0.00000000        0.00000000        0.00000000
      31         -0.669606        2.000000        0.00024242        0.00003245        0.00000088
      32         -0.668947        2.000000        0.00000629        0.00002239        0.00000012
      33         -0.668931        2.000000        0.00000697        0.00004028        0.00000022
      34         -0.668431        2.000000        0.00000023        0.00000006        0.00000000
      35         -0.668008        2.000000        0.00000003        0.00000006        0.00000000
      36         -0.667083        2.000000        0.00000004        0.00000016        0.00000000
      37         -0.666996        2.000000        0.00111105        0.00097165        0.00002000
      38         -0.666939        2.000000        0.00000010        0.00000013        0.00000000
      39         -0.666646        2.000000        0.00000016        0.00000062        0.00000001
      40         -0.666363        2.000000        0.00000075        0.00000015        0.00000000
      41         -0.666281        2.000000        0.00147821        0.00011802        0.00000441
      42         -0.666129        2.000000        0.00000016        0.00000004        0.00000000
      43         -0.665867        2.000000        0.00000001        0.00000000        0.00000000
      44         -0.664404        2.000000        0.00012395        0.00003190        0.00000027
      45         -0.664061        2.000000        0.00001662        0.00000134        0.00000003
      46         -0.663948        2.000000        0.00101281        0.00008673        0.00000223
      47         -0.663550        2.000000        0.00001314        0.00000105        0.00000003
      48         -0.662943        2.000000        0.00102326        0.00006697        0.00000221
      49         -0.662627        2.000000        0.00000000        0.00000000        0.00000000
      50         -0.661965        2.000000        0.00001031        0.00000098        0.00000002
      51         -0.661528        2.000000        0.03197219        0.00351637        0.00005902
      52         -0.660900        2.000000        0.00088364        0.00010859        0.00000141
      53         -0.660166        2.000000        0.00000000        0.00000000        0.00000000
      54         -0.659683        2.000000        0.00234984        0.00024008        0.00000555
      55         -0.658835        2.000000        0.00000024        0.00000024        0.00000000
      56         -0.658814        2.000000        0.00570840        0.00060374        0.00000874
      57         -0.658691        2.000000        0.06411155        0.00579254        0.00016154
      58         -0.658084        2.000000        0.00512837        0.00046980        0.00001086
      59         -0.658073        2.000000        0.01538199        0.00141658        0.00003251
      60         -0.657975        2.000000        0.00004793        0.00000497        0.00000011
      61         -0.657678        2.000000        0.00001420        0.00000172        0.00000003
      62         -0.657592        2.000000        0.00001500        0.00000135        0.00000003
      63         -0.657226        2.000000        0.00698030        0.00071365        0.00001382
      64         -0.657087        2.000000        0.00001307        0.00000138        0.00000003
      65         -0.656742        2.000000        0.00010343        0.00001260        0.00000018
      66         -0.656449        2.000000        0.00010662        0.00001174        0.00000014
      67         -0.656215        2.000000        0.00036726        0.00004521        0.00000043
      68         -0.655700        2.000000        0.00031299        0.00006178        0.00000027
      69         -0.655174        2.000000        0.00844808        0.00057409        0.00002416
      70         -0.654827        2.000000        0.00000752        0.00000227        0.00000003
      71         -0.654660        2.000000        0.00319085        0.00096212        0.00002187
      72         -0.654406        2.000000        0.00001630        0.00000270        0.00000009
      73         -0.654250        2.000000        0.00000958        0.00000153        0.00000004
      74         -0.653619        2.000000        0.02449530        0.00271973        0.00009171
      75         -0.653105        2.000000        0.00107752        0.00030478        0.00000228
      76         -0.652904        2.000000        0.01468333        0.00175768        0.00002747
      77         -0.652612        2.000000        0.00017972        0.00002031        0.00000034
      78         -0.652411        2.000000        0.00000843        0.00000110        0.00000001
      79         -0.652213        2.000000        0.00018021        0.00012184        0.00000064
      80         -0.652083        2.000000        0.00153456        0.00027013        0.00000347
      81         -0.651807        2.000000        0.00014886        0.00015447        0.00000420
      82         -0.651706        2.000000        0.01624218        0.00212713        0.00006852
      83         -0.651237        2.000000        0.00063851        0.00022144        0.00000266
      84         -0.651053        2.000000        0.00112771        0.00017230        0.00000250
      85         -0.650411        2.000000        0.00085722        0.00245318        0.00002731
      86         -0.650326        2.000000        0.00102347        0.00018781        0.00000399
      87         -0.650219        2.000000        0.00005974        0.00023651        0.00000223
      88         -0.650130        2.000000        0.00073871        0.00153770        0.00001440
      89         -0.649849        2.000000        0.00073899        0.00284423        0.00002662
      90         -0.649510        2.000000        0.00005724        0.00018636        0.00000175
      91         -0.648737        2.000000        0.00000055        0.00000633        0.00000018
      92         -0.648608        2.000000        0.00061382        0.00322273        0.00003207
      93         -0.648509        2.000000        0.00003072        0.00014995        0.00000146
      94         -0.648091        2.000000        0.00170991        0.00716620        0.00006914
      95         -0.647956        2.000000        0.00032533        0.00162894        0.00001686
      96         -0.647875        2.000000        0.00001343        0.00003643        0.00000035
      97         -0.647628        2.000000        0.00000616        0.00001542        0.00000015
      98         -0.647248        2.000000        0.00000182        0.00000041        0.00000001
      99         -0.646997        2.000000        0.00009689        0.00012905        0.00000557
     100         -0.646893        2.000000        0.00003622        0.00024419        0.00000193
     101         -0.646794        2.000000        0.00000023        0.00000126        0.00000001
     102         -0.645843        2.000000        0.00088207        0.00018356        0.00000140
     103         -0.645519        2.000000        0.00026431        0.00005160        0.00000056
     104         -0.645232        2.000000        0.00037152        0.00007174        0.00000098
     105         -0.644964        2.000000        0.00001364        0.00000319        0.00000003
     106         -0.644451        2.000000        0.00025624        0.00008595        0.00000026
     107         -0.644170        2.000000        0.00000791        0.00000126        0.00000003
     108         -0.643891        2.000000        0.00000076        0.00000660        0.00000005
     109         -0.643862        2.000000        0.00002226        0.00001987        0.00000014
     110         -0.643478        2.000000        0.00004116        0.00001908        0.00000013
     111         -0.643325        2.000000        0.00012439        0.00014707        0.00000131
     112         -0.642934        2.000000        0.00673815        0.00188157        0.00000779
     113         -0.642899        2.000000        0.00000592        0.00000197        0.00000001
     114         -0.642460        2.000000        0.00000574        0.00000240        0.00000001
     115         -0.642175        2.000000        0.00700939        0.00493522        0.00003078
     116         -0.642120        2.000000        0.00002152        0.00002720        0.00000026
     117         -0.641851        2.000000        0.00027730        0.00026793        0.00000198
     118         -0.641683        2.000000        0.00005743        0.00009448        0.00000104
     119         -0.641305        2.000000        0.00018243        0.00019306        0.00000175
     120         -0.641072        2.000000        0.00001764        0.00000704        0.00000002
     121         -0.640960        2.000000        0.00021562        0.00003649        0.00000218
     122         -0.640793        2.000000        0.00081211        0.00011334        0.00000194
     123         -0.640578        2.000000        0.00001822        0.00003241        0.00000035
     124         -0.640464        2.000000        0.00001950        0.00010538        0.00000117
     125         -0.640169        2.000000        0.00040604        0.00039864        0.00000270
     126         -0.639736        2.000000        0.00012485        0.00014018        0.00000095
     127         -0.639499        2.000000        0.00018842        0.00008189        0.00000117
     128         -0.639154        2.000000        0.00004384        0.00015563        0.00000165
     129         -0.639060        2.000000        0.00148768        0.00123235        0.00001464
     130         -0.638976        2.000000        0.00072339        0.00028380        0.00000226
     131         -0.638593        2.000000        0.00077374        0.00033737        0.00000063
     132         -0.638261        2.000000        0.00002776        0.00001965        0.00000009
     133         -0.638059        2.000000        0.00005518        0.00001333        0.00000005
     134         -0.637912        2.000000        0.00007981        0.00010447        0.00000094
     135         -0.637762        2.000000        0.00005378        0.00004443        0.00000026
     136         -0.637584        2.000000        0.02831345        0.01801199        0.00007335
     137         -0.636804        2.000000        0.00002167        0.00001189        0.00000004
     138         -0.636640        2.000000        0.00201893        0.00088233        0.00000259
     139         -0.636429        2.000000        0.00696946        0.00343735        0.00000978
     140         -0.635515        2.000000        0.00848356        0.00317466        0.00000680
     141         -0.634989        2.000000        0.00168438        0.00048514        0.00000276
     142         -0.634462        2.000000        0.00013138        0.00004023        0.00000021
     143         -0.634132        2.000000        0.00001032        0.00005073        0.00000100
     144         -0.633763        2.000000        0.00187637        0.00233599        0.00002020
     145         -0.633531        2.000000        0.00000261        0.00000204        0.00000001
     146         -0.632585        2.000000        0.00012831        0.00011784        0.00000063
     147         -0.632333        2.000000        0.00065246        0.00017816        0.00000448
     148         -0.632031        2.000000        0.00110631        0.00754233        0.00015699
     149         -0.631841        2.000000        0.00000524        0.00001653        0.00000060
     150         -0.631318        2.000000        0.00007529        0.00002604        0.00000075
     151         -0.630640        2.000000        0.00023407        0.00008284        0.00000112
     152         -0.630519        2.000000        0.00001185        0.00000525        0.00000009
     153         -0.630490        2.000000        0.00000063        0.00000031        0.00000001
     154         -0.629959        2.000000        0.00095064        0.00026476        0.00000158
     155         -0.629452        2.000000        0.00036451        0.00005549        0.00000245
     156         -0.629210        2.000000        0.00000546        0.00000104        0.00000002
     157         -0.628856        2.000000        0.00710878        0.00312761        0.00002512
     158         -0.628516        2.000000        0.00005545        0.00001012        0.00000014
     159         -0.628511        2.000000        0.00000173        0.00001580        0.00000025
     160         -0.628382        2.000000        0.00004388        0.00007698        0.00000059
     161         -0.628242        2.000000        0.00569717        0.00152901        0.00000650
     162         -0.628026        2.000000        0.00777653        0.00242443        0.00000551
     163         -0.627712        2.000000        0.00169856        0.00054912        0.00000104
     164         -0.627438        2.000000        0.00012989        0.00005687        0.00000006
     165         -0.627281        2.000000        0.00096040        0.00029941        0.00000066
     166         -0.626983        2.000000        0.00105257        0.00026796        0.00000148
     167         -0.626804        2.000000        0.00134614        0.00098302        0.00000272
     168         -0.626588        2.000000        0.00023155        0.00006191        0.00000041
     169         -0.626019        2.000000        0.01469817        0.00320637        0.00019118
     170         -0.625843        2.000000        0.00030834        0.00009688        0.00000023
     171         -0.625019        2.000000        0.00000101        0.00000106        0.00000001
     172         -0.624831        2.000000        0.00705177        0.00194111        0.00000938
     173         -0.624166        2.000000        0.05909530        0.01740295        0.00006994
     174         -0.623906        2.000000        0.00086710        0.00025660        0.00000103
     175         -0.623799        2.000000        0.00557273        0.00172111        0.00000525
     176         -0.623716        2.000000        0.00059778        0.00017773        0.00000073
     177         -0.623382        2.000000        0.01037310        0.00305957        0.00001260
     178         -0.623067        2.000000        0.00000610        0.00000179        0.00000001
     179         -0.622801        2.000000        0.00158209        0.00046198        0.00000211
     180         -0.622617        2.000000        0.01260476        0.00368434        0.00001576
     181         -0.622499        2.000000        0.00120106        0.00035024        0.00000151
     182         -0.621672        2.000000        0.00011360        0.00003522        0.00000012
     183         -0.621151        2.000000        0.00017279        0.00005645        0.00000017
     184         -0.620781        2.000000        0.00046985        0.00015736        0.00000047
     185         -0.620579        2.000000        0.00045764        0.00014151        0.00000058
     186         -0.619930        2.000000        0.00009611        0.00002956        0.00000017
     187         -0.618694        2.000000        0.00000201        0.00000063        0.00000000
     188         -0.618461        2.000000        0.00135045        0.00044148        0.00000399
     189         -0.618211        2.000000        0.00004247        0.00001328        0.00000008
     190         -0.617957        2.000000        0.00182722        0.00057665        0.00000279
     191         -0.617770        2.000000        0.00041302        0.00013211        0.00000097
     192         -0.617636        2.000000        0.00271997        0.00087336        0.00000370
     193         -0.617200        2.000000        0.00003017        0.00001141        0.00000003
     194         -0.616810        2.000000        0.00440930        0.00146265        0.00000520
     195         -0.615618        2.000000        0.08919311        0.02966072        0.00012181
     196         -0.615377        2.000000        0.00117492        0.00039210        0.00000162
     197         -0.615228        2.000000        0.08541584        0.02853833        0.00011920
     198         -0.614941        2.000000        0.00001326        0.00000445        0.00000002
     199         -0.613862        2.000000        0.00044537        0.00015339        0.00000061
     200         -0.613167        2.000000        0.00004713        0.00001861        0.00000006
     201         -0.612937        2.000000        0.00000000        0.00000000        0.00000000
     202         -0.612465        2.000000        0.00000008        0.00000009        0.00000000
     203         -0.611371        2.000000        0.00938883        0.00332067        0.00001617
     204         -0.611273        2.000000        0.09828649        0.03487013        0.00016822
     205         -0.610903        2.000000        0.00361568        0.00129342        0.00000623
     206         -0.609912        2.000000        0.00002698        0.00001008        0.00000004
     207         -0.609442        2.000000        0.00000000        0.00000001        0.00000000
     208         -0.609149        2.000000        0.00005309        0.00002062        0.00000007
     209         -0.608882        2.000000        0.00003821        0.00001470        0.00000011
     210         -0.608562        2.000000        0.00913719        0.00390239        0.00000896
     211         -0.608012        2.000000        0.00001828        0.00000679        0.00000004
     212         -0.607014        2.000000        0.00001901        0.00000729        0.00000004
     213         -0.606300        2.000000        0.00000128        0.00000049        0.00000001
     214         -0.605948        2.000000        0.00000003        0.00000002        0.00000000
     215         -0.605403        2.000000        0.00000008        0.00000003        0.00000000
     216         -0.604664        2.000000        0.00000135        0.00000056        0.00000000
     217         -0.604080        2.000000        0.00000093        0.00000036        0.00000001
     218         -0.603538        2.000000        0.00000348        0.00000137        0.00000001
     219         -0.603145        2.000000        0.00000086        0.00000035        0.00000000
     220         -0.602213        2.000000        0.00000119        0.00000044        0.00000000
     221         -0.601871        2.000000        0.00000083        0.00000055        0.00000000
     222         -0.600521        2.000000        0.00000000        0.00000000        0.00000000
     223         -0.599848        2.000000        0.00000043        0.00000024        0.00000000
     224         -0.598111        2.000000        0.00000107        0.00000047        0.00000000
     225         -0.597286        2.000000        0.00000015        0.00000007        0.00000000
     226         -0.597121        2.000000        0.00000013        0.00000006        0.00000000
     227         -0.595585        2.000000        0.00000006        0.00000006        0.00000000
     228         -0.591103        2.000000        0.00000000        0.00000000        0.00000000
     229         -0.582585        2.000000        0.00000001        0.00000002        0.00000000
     230         -0.576283        2.000000        0.00000000        0.00000000        0.00000000
     231         -0.258156        2.000000        0.00000000        0.00000000        0.00000000
     232         -0.253473        2.000000        0.00000000        0.00000000        0.00000000
     233         -0.246233        2.000000        0.00000000        0.00000000        0.00000000
     234         -0.244651        2.000000        0.00000000        0.00000000        0.00000000
     235         -0.243092        2.000000        0.00000000        0.00000000        0.00000000
     236         -0.242544        2.000000        0.00001880        0.00015201        0.00000285
     237         -0.241048        2.000000        0.00000000        0.00000000        0.00000000
     238         -0.240546        2.000000        0.00000000        0.00000000        0.00000000
     239         -0.237982        2.000000        0.00000000        0.00000001        0.00000000
     240         -0.237798        2.000000        0.00002111        0.00009177        0.00000093
     241         -0.236566        2.000000        0.00000378        0.00002474        0.00000040
     242         -0.235920        2.000000        0.00000286        0.00001506        0.00000024
     243         -0.233145        2.000000        0.00108699        0.00264923        0.00004525
     244         -0.232785        2.000000        0.00000018        0.00000042        0.00000001
     245         -0.232224        2.000000        0.00000062        0.00000140        0.00000003
     246         -0.232174        2.000000        0.08132914        0.18773598        0.00331732
     247         -0.232015        2.000000        0.07200516        0.16563678        0.00293911
     248         -0.230744        2.000000        0.02170972        0.04983004        0.00090454
     249         -0.230697        2.000000        0.00005008        0.00011483        0.00000209
     250         -0.229959        2.000000        0.00544136        0.01263354        0.00022143
     251         -0.229741        2.000000        0.00000192        0.00000440        0.00000008
     252         -0.228898        2.000000        0.00000017        0.00000038        0.00000001
     253         -0.227939        2.000000        0.00000001        0.00000002        0.00000000
     254         -0.227542        2.000000        0.00000000        0.00000000        0.00000000
     255         -0.227010        2.000000        0.00000000        0.00000000        0.00000000
     256         -0.226860        2.000000        0.00015224        0.00045065        0.00000701
     257         -0.226780        2.000000        0.00000001        0.00000003        0.00000000
     258         -0.226656        2.000000        0.00000000        0.00000000        0.00000000
     259         -0.226503        2.000000        0.00002415        0.00010622        0.00000081
     260         -0.226036        2.000000        0.00000000        0.00000000        0.00000000
     261         -0.225667        2.000000        0.00009808        0.00032707        0.00000409
     262         -0.225511        2.000000        0.00000539        0.00001296        0.00000022
     263         -0.224716        2.000000        0.00000004        0.00000022        0.00000000
     264         -0.224218        2.000000        0.00000001        0.00000007        0.00000000
     265         -0.223677        2.000000        0.00026585        0.00271339        0.00002423
     266         -0.223438        2.000000        0.00000059        0.00000584        0.00000006
     267         -0.223292        2.000000        0.00000001        0.00000013        0.00000000
     268         -0.223025        2.000000        0.00000026        0.00000214        0.00000002
     269         -0.222436        2.000000        0.00000015        0.00000111        0.00000001
     270         -0.222159        2.000000        0.00076635        0.00178894        0.00002808
     271         -0.221905        2.000000        0.00000042        0.00000156        0.00000002
     272         -0.221185        2.000000        0.00004641        0.00035136        0.00000367
     273         -0.220659        2.000000        0.00000033        0.00000091        0.00000001
     274         -0.219665        2.000000        0.00000655        0.00006628        0.00000067
     275         -0.219630        2.000000        0.00030956        0.00244934        0.00002424
     276         -0.218916        2.000000        0.00000536        0.00001408        0.00000019
     277         -0.218551        2.000000        0.00050346        0.00130358        0.00001721
     278         -0.218398        2.000000        0.00018903        0.00046440        0.00000506
     279         -0.218139        2.000000        0.00586560        0.01446620        0.00020790
     280         -0.217698        2.000000        0.00014828        0.00037077        0.00000539
     281         -0.217580        2.000000        0.01179894        0.02969590        0.00043218
     282         -0.217435        2.000000        0.00034894        0.00088407        0.00001287
     283         -0.216483        2.000000        0.00002408        0.00006027        0.00000091
     284         -0.216363        2.000000        0.00379475        0.00965550        0.00014524
     285         -0.216254        2.000000        0.00002404        0.00006074        0.00000092
     286         -0.215958        2.000000        0.00004957        0.00034497        0.00000298
     287         -0.215645        2.000000        0.00179811        0.00436024        0.00006656
     288         -0.215217        2.000000        0.00000108        0.00000262        0.00000004
     289         -0.214936        2.000000        0.00000005        0.00000017        0.00000000
     290         -0.214221        2.000000        0.00000359        0.00000834        0.00000013
     291         -0.213816        2.000000        0.00000507        0.00001215        0.00000018
     292         -0.213592        2.000000        0.00187873        0.00703148        0.00008197
     293         -0.213468        2.000000        0.00001764        0.00003988        0.00000056
     294         -0.213241        2.000000        0.00000005        0.00000014        0.00000000
     295         -0.213184        2.000000        0.00174420        0.00367501        0.00005509
     296         -0.212817        2.000000        0.00246918        0.00558167        0.00008200
     297         -0.212583        2.000000        0.00000735        0.00001595        0.00000023
     298         -0.212273        2.000000        0.00042257        0.00103714        0.00001506
     299         -0.211896        2.000000        0.00000082        0.00000211        0.00000003
     300         -0.211391        2.000000        0.00001050        0.00003500        0.00000049
     301         -0.211339        2.000000        0.00000076        0.00000419        0.00000010
     302         -0.211269        2.000000        0.00000054        0.00000216        0.00000003
     303         -0.211046        2.000000        0.00010130        0.00027211        0.00000344
     304         -0.210412        2.000000        0.00002604        0.00010285        0.00000105
     305         -0.210309        2.000000        0.00002195        0.00019779        0.00000190
     306         -0.210188        2.000000        0.00036741        0.00086709        0.00001227
     307         -0.210166        2.000000        0.00023697        0.00056814        0.00000808