# Projected DOS for list 64 of 3 atoms, at iteration step i = 0, E(Fermi) =     0.101540 a.u.
#     MO Eigenvalue [a.u.]      Occupation                 s                 p                 d
       1         -0.708367        2.000000        0.00000003        0.00000002        0.00000000
       2         -0.696979        2.000000        0.02654103        0.00774819        0.00006802
       3         -0.695301        2.000000        0.00043725        0.00013835        0.00000094
       4         -0.694902        2.000000        0.00000000        0.00000000        0.00000000
       5         -0.690081        2.000000        0.00000000        0.00000000        0.00000000
       6         -0.686805        2.000000        0.21322564        0.05060367        0.00018171
       7         -0.686571        2.000000        0.02145894        0.00515470        0.00001809
       8         -0.685003        2.000000        0.00014793        0.00002172        0.00000029
       9         -0.684036        2.000000        0.00263424        0.00065655        0.00000290
      10         -0.683920        2.000000        0.00000000        0.00000000        0.00000000
      11         -0.681735        2.000000        0.09255265        0.02214556        0.00010391
      12         -0.679408        2.000000        0.01364826        0.00309216        0.00002136
      13         -0.678932        2.000000        0.00000001        0.00000000        0.00000000
      14         -0.678381        2.000000        0.22836748        0.05319380        0.00039341
      15         -0.677963        2.000000        0.01357661        0.00321897        0.00002449
      16         -0.677540        2.000000        0.02442532        0.00573675        0.00004492
      17         -0.677381        2.000000        0.00000000        0.00000000        0.00000000
      18         -0.677246        2.000000        0.00409607        0.00102443        0.00000914
      19         -0.675827        2.000000        0.00478568        0.00120535        0.00001031
      20         -0.675724        2.000000        0.00000000        0.00000000        0.00000000
      21         -0.674932        2.000000        0.00000000        0.00000000        0.00000000
      22         -0.674380        2.000000        0.03859326        0.00965117        0.00010392
      23         -0.673393        2.000000        0.00009499        0.00014352        0.00000283
      24         -0.672924        2.000000        0.00000003        0.00000001        0.00000000
      25         -0.672289        2.000000        0.00051295        0.00019918        0.00000081
      26         -0.672227        2.000000        0.00026196        0.00006040        0.00000102
      27         -0.671275        2.000000        0.00000015        0.00000004        0.00000000
      28         -0.670770        2.000000        0.00184855        0.00040214        0.00000910
      29         -0.670400        2.000000        0.00024288        0.00006221        0.00000190
      30         -0.669922        2.000000        0.00542811        0.00105191        0.00003370
      31         -0.669606        2.000000        0.00000129        0.00000083        0.00000000
      32         -0.668947        2.000000        0.00093465        0.00040699        0.00000174
      33         -0.668931        2.000000        0.00053046        0.00022503        0.00000101
      34         -0.668431        2.000000        0.00009291        0.00047299        0.00000453
      35         -0.668008        2.000000        0.00143086        0.00041548        0.00000459
      36         -0.667083        2.000000        0.00318734        0.00254910        0.00000324
      37         -0.666996        2.000000        0.00000157        0.00000101        0.00000000
      38         -0.666939        2.000000        0.00119916        0.00049327        0.00000364
      39         -0.666646        2.000000        0.00045190        0.00021840        0.00000090
      40         -0.666363        2.000000        0.00012928        0.00004945        0.00000157
      41         -0.666281        2.000000        0.00000042        0.00000015        0.00000000
      42         -0.666129        2.000000        0.00280840        0.00094273        0.00000934
      43         -0.665867        2.000000        0.00371140        0.00152215        0.00002125
      44         -0.664404        2.000000        0.00000019        0.00000013        0.00000000
      45         -0.664061        2.000000        0.00010012        0.00003535        0.00000137
      46         -0.663948        2.000000        0.00000241        0.00000285        0.00000008
      47         -0.663550        2.000000        0.00022276        0.00007376        0.00000427
      48         -0.662943        2.000000        0.00000001        0.00000000        0.00000000
      49         -0.662627        2.000000        0.00007132        0.00003100        0.00000092
      50         -0.661965        2.000000        0.00179750        0.00057481        0.00001100
      51         -0.661528        2.000000        0.00000104        0.00000047        0.00000001
      52         -0.660900        2.000000        0.00000597        0.00000399        0.00000002
      53         -0.660166        2.000000        0.00007433        0.00009402        0.00000180
      54         -0.659683        2.000000        0.00000004        0.00000004        0.00000000
      55         -0.658835        2.000000        0.00000488        0.00002291        0.00000025
      56         -0.658814        2.000000        0.00000004        0.00000006        0.00000000
      57         -0.658691        2.000000        0.00000008        0.00000005        0.00000000
      58         -0.658084        2.000000        0.00008666        0.00036705        0.00000057
      59         -0.658073        2.000000        0.00002506        0.00011085        0.00000016
      60         -0.657975        2.000000        0.00097379        0.00044249        0.00000552
      61         -0.657678        2.000000        0.00192087        0.00229071        0.00000466
      62         -0.657592        2.000000        0.00118608        0.00123544        0.00000155
      63         -0.657226        2.000000        0.00000005        0.00000003        0.00000000
      64         -0.657087        2.000000        0.00068621        0.00070358        0.00000145
      65         -0.656742        2.000000        0.00000246        0.00001106        0.00000006
      66         -0.656449        2.000000        0.00003510        0.00007993        0.00000038
      67         -0.656215        2.000000        0.00006368        0.00026634        0.00000137
      68         -0.655700        2.000000        0.00001747        0.00012419        0.00000101
      69         -0.655174        2.000000        0.00000036        0.00000025        0.00000000
      70         -0.654827        2.000000        0.00092539        0.00039950        0.00000873
      71         -0.654660        2.000000        0.00000647        0.00000148        0.00000006
      72         -0.654406        2.000000        0.00458701        0.00162561        0.00004114
      73         -0.654250        2.000000        0.00240444        0.00104023        0.00001323
      74         -0.653619        2.000000        0.00000725        0.00000177        0.00000014
      75         -0.653105        2.000000        0.00001852        0.00004096        0.00000134
      76         -0.652904        2.000000        0.00000940        0.00004619        0.00000081
      77         -0.652612        2.000000        0.00076103        0.00037767        0.00000472
      78         -0.652411        2.000000        0.00039164        0.00011599        0.00000577
      79         -0.652213        2.000000        0.00006587        0.00005009        0.00000049
      80         -0.652083        2.000000        0.00092330        0.00042562        0.00000891
      81         -0.651807        2.000000        0.00398635        0.00128763        0.00005527
      82         -0.651706        2.000000        0.00071289        0.00021117        0.00001049
      83         -0.651237        2.000000        0.00208607        0.00067235        0.00004173
      84         -0.651053        2.000000        0.00485345        0.00154951        0.00008553
      85         -0.650411        2.000000        0.00022977        0.00010796        0.00000238
      86         -0.650326        2.000000        0.00292414        0.00069840        0.00003509
      87         -0.650219        2.000000        0.00007648        0.00065710        0.00000355
      88         -0.650130        2.000000        0.01232468        0.00313921        0.00015393
      89         -0.649849        2.000000        0.00179986        0.00053704        0.00001890
      90         -0.649510        2.000000        0.00270298        0.00073790        0.00003821
      91         -0.648737        2.000000        0.00062527        0.00015085        0.00001170
      92         -0.648608        2.000000        0.00004512        0.00001147        0.00000098
      93         -0.648509        2.000000        0.00150492        0.00041864        0.00002564
      94         -0.648091        2.000000        0.00001747        0.00000621        0.00000023
      95         -0.647956        2.000000        0.00000001        0.00000001        0.00000000
      96         -0.647875        2.000000        0.00053662        0.00011511        0.00000739
      97         -0.647628        2.000000        0.00005950        0.00005265        0.00000111
      98         -0.647248        2.000000        0.00010143        0.00003865        0.00000067
      99         -0.646997        2.000000        0.00000002        0.00000009        0.00000000
     100         -0.646893        2.000000        0.00000003        0.00000017        0.00000000
     101         -0.646794        2.000000        0.00005702        0.00009786        0.00000018
     102         -0.645843        2.000000        0.00001751        0.00001522        0.00000009
     103         -0.645519        2.000000        0.00045486        0.00015708        0.00000580
     104         -0.645232        2.000000        0.00002955        0.00001767        0.00000091
     105         -0.644964        2.000000        0.00003756        0.00006318        0.00000063
     106         -0.644451        2.000000        0.00010615        0.00005051        0.00000142
     107         -0.644170        2.000000        0.00014508        0.00012810        0.00000611
     108         -0.643891        2.000000        0.00093434        0.00031983        0.00001353
     109         -0.643862        2.000000        0.00183387        0.00071435        0.00002499
     110         -0.643478        2.000000        0.00003963        0.00004769        0.00000092
     111         -0.643325        2.000000        0.00044870        0.00015873        0.00000985
     112         -0.642934        2.000000        0.00002939        0.00000869        0.00000051
     113         -0.642899        2.000000        0.00003087        0.00002903        0.00000043
     114         -0.642460        2.000000        0.00001084        0.00000736        0.00000005
     115         -0.642175        2.000000        0.00003177        0.00001008        0.00000059
     116         -0.642120        2.000000        0.00001556        0.00004494        0.00000010
     117         -0.641851        2.000000        0.00012191        0.00004617        0.00000139
     118         -0.641683        2.000000        0.00007665        0.00004453        0.00000062
     119         -0.641305        2.000000        0.00020184        0.00008868        0.00000233
     120         -0.641072        2.000000        0.00006113        0.00004151        0.00000041
     121         -0.640960        2.000000        0.00010532        0.00004690        0.00000121
     122         -0.640793        2.000000        0.00001130        0.00000359        0.00000035
     123         -0.640578        2.000000        0.00003764        0.00008334        0.00000023
     124         -0.640464        2.000000        0.00000530        0.00001644        0.00000006
     125         -0.640169        2.000000        0.00012964        0.00003801        0.00000236
     126         -0.639736        2.000000        0.00002304        0.00000765        0.00000043
     127         -0.639499        2.000000        0.00002525        0.00001199        0.00000033
     128         -0.639154        2.000000        0.00001232        0.00005698        0.00000021
     129         -0.639060        2.000000        0.00002703        0.00004403        0.00000019
     130         -0.638976        2.000000        0.00001983        0.00007646        0.00000016
     131         -0.638593        2.000000        0.00001476        0.00002121        0.00000111
     132         -0.638261        2.000000        0.00000705        0.00003184        0.00000019
     133         -0.638059        2.000000        0.00077397        0.00115587        0.00000245
     134         -0.637912        2.000000        0.00056957        0.00084654        0.00000197
     135         -0.637762        2.000000        0.00000397        0.00001097        0.00000016
     136         -0.637584        2.000000        0.00006555        0.00004460        0.00000050
     137         -0.636804        2.000000        0.00000476        0.00001328        0.00000001
     138         -0.636640        2.000000        0.00005928        0.00004277        0.00000045
     139         -0.636429        2.000000        0.00008298        0.00006247        0.00000060
     140         -0.635515        2.000000        0.00000997        0.00001037        0.00000005
     141         -0.634989        2.000000        0.00001044        0.00000394        0.00000039
     142         -0.634462        2.000000        0.00000476        0.00000262        0.00000006
     143         -0.634132        2.000000        0.00010518        0.00004173        0.00000231
     144         -0.633763        2.000000        0.00000097        0.00000116        0.00000000
     145         -0.633531        2.000000        0.00003958        0.00016984        0.00000035
     146         -0.632585        2.000000        0.00002220        0.00001718        0.00000023
     147         -0.632333        2.000000        0.00000091        0.00000044        0.00000001
     148         -0.632031        2.000000        0.00000118        0.00000050        0.00000003
     149         -0.631841        2.000000        0.00000381        0.00000138        0.00000010
     150         -0.631318        2.000000        0.00003804        0.00001862        0.00000131
     151         -0.630640        2.000000        0.00000415        0.00000918        0.00000002
     152         -0.630519        2.000000        0.00001243        0.00002574        0.00000008
     153         -0.630490        2.000000        0.00000697        0.00002889        0.00000008
     154         -0.629959        2.000000        0.00000722        0.00000274        0.00000016
     155         -0.629452        2.000000        0.00003429        0.00002792        0.00000043
     156         -0.629210        2.000000        0.00049848        0.00125253        0.00000125
     157         -0.628856        2.000000        0.00000255        0.00000093        0.00000007
     158         -0.628516        2.000000        0.00016495        0.00024887        0.00000641
     159         -0.628511        2.000000        0.00019624        0.00027000        0.00000169
     160         -0.628382        2.000000        0.00027728        0.00021116        0.00000426
     161         -0.628242        2.000000        0.00001097        0.00004945        0.00000018
     162         -0.628026        2.000000        0.00002478        0.00007000        0.00000091
     163         -0.627712        2.000000        0.00003456        0.00008584        0.00000118
     164         -0.627438        2.000000        0.00002503        0.00000868        0.00000084
     165         -0.627281        2.000000        0.00014498        0.00005427        0.00000458
     166         -0.626983        2.000000        0.00000256        0.00000894        0.00000007
     167         -0.626804        2.000000        0.00000100        0.00000090        0.00000002
     168         -0.626588        2.000000        0.00000952        0.00000839        0.00000028
     169         -0.626019        2.000000        0.00000002        0.00000002        0.00000000
     170         -0.625843        2.000000        0.00000218        0.00001152        0.00000023
     171         -0.625019        2.000000        0.00001737        0.00000961        0.00000028
     172         -0.624831        2.000000        0.00000351        0.00000155        0.00000008
     173         -0.624166        2.000000        0.00000066        0.00000082        0.00000000
     174         -0.623906        2.000000        0.00001425        0.00000527        0.00000042
     175         -0.623799        2.000000        0.00000001        0.00000003        0.00000000
     176         -0.623716        2.000000        0.00001410        0.00001117        0.00000066
     177         -0.623382        2.000000        0.00000087        0.00000199        0.00000001
     178         -0.623067        2.000000        0.00000012        0.00000050        0.00000001
     179         -0.622801        2.000000        0.00000131        0.00000053        0.00000005
     180         -0.622617        2.000000        0.00000030        0.00000190        0.00000005
     181         -0.622499        2.000000        0.00000425        0.00002485        0.00000065
     182         -0.621672        2.000000        0.00000505        0.00000274        0.00000021
     183         -0.621151        2.000000        0.00008661        0.00003770        0.00000240
     184         -0.620781        2.000000        0.00003695        0.00001622        0.00000113
     185         -0.620579        2.000000        0.00000018        0.00000028        0.00000002
     186         -0.619930        2.000000        0.00000593        0.00000421        0.00000023
     187         -0.618694        2.000000        0.00001512        0.00000823        0.00000051
     188         -0.618461        2.000000        0.00000148        0.00000106        0.00000005
     189         -0.618211        2.000000        0.00001153        0.00003105        0.00000020
     190         -0.617957        2.000000        0.00000508        0.00000444        0.00000006
     191         -0.617770        2.000000        0.00000040        0.00000051        0.00000002
     192         -0.617636        2.000000        0.00000367        0.00000409        0.00000004
     193         -0.617200        2.000000        0.00000013        0.00000047        0.00000000
     194         -0.616810        2.000000        0.00000042        0.00000028        0.00000001
     195         -0.615618        2.000000        0.00000057        0.00000055        0.00000001
     196         -0.615377        2.000000        0.00002276        0.00001938        0.00000052
     197         -0.615228        2.000000        0.00000002        0.00000002        0.00000000
     198         -0.614941        2.000000        0.00001826        0.00006207        0.00000004
     199         -0.613862        2.000000        0.00000015        0.00000015        0.00000000
     200         -0.613167        2.000000        0.00000061        0.00000033        0.00000001
     201         -0.612937        2.000000        0.00029273        0.00092140        0.00000072
     202         -0.612465        2.000000        0.00000152        0.00000324        0.00000005
     203         -0.611371        2.000000        0.00000337        0.00000410        0.00000004
     204         -0.611273        2.000000        0.00000028        0.00000040        0.00000000
     205         -0.610903        2.000000        0.00000004        0.00000010        0.00000000
     206         -0.609912        2.000000        0.00000035        0.00000014        0.00000001
     207         -0.609442        2.000000        0.00000027        0.00000088        0.00000004
     208         -0.609149        2.000000        0.00000104        0.00000109        0.00000002
     209         -0.608882        2.000000        0.00000004        0.00000004        0.00000000
     210         -0.608562        2.000000        0.00000000        0.00000000        0.00000000
     211         -0.608012        2.000000        0.00000035        0.00000054        0.00000001
     212         -0.607014        2.000000        0.00000036        0.00000037        0.00000001
     213         -0.606300        2.000000        0.00000210        0.00000162        0.00000008
     214         -0.605948        2.000000        0.00000072        0.00000304        0.00000002
     215         -0.605403        2.000000        0.00000027        0.00000118        0.00000001
     216         -0.604664        2.000000        0.00003866        0.00003424        0.00000115
     217         -0.604080        2.000000        0.00000302        0.00000298        0.00000009
     218         -0.603538        2.000000        0.00001139        0.00001239        0.00000036
     219         -0.603145        2.000000        0.00000178        0.00000170        0.00000006
     220         -0.602213        2.000000        0.00000032        0.00000187        0.00000002
     221         -0.601871        2.000000        0.00000010        0.00000012        0.00000000
     222         -0.600521        2.000000        0.00050081        0.00028215        0.00001700
     223         -0.599848        2.000000        0.00000703        0.00000383        0.00000024
     224         -0.598111        2.000000        0.00000028        0.00000014        0.00000001
     225         -0.597286        2.000000        0.00000034        0.00000021        0.00000001
     226         -0.597121        2.000000        0.00000013        0.00000006        0.00000000
     227         -0.595585        2.000000        0.00000000        0.00000000        0.00000000
     228         -0.591103        2.000000        0.00000015        0.00000007        0.00000000
     229         -0.582585        2.000000        0.00000000        0.00000000        0.00000000
     230         -0.576283        2.000000        0.00000000        0.00000000        0.00000000
     231         -0.258156        2.000000        0.00000000        0.00000001        0.00000000
     232         -0.253473        2.000000        0.00014974        0.00060869        0.00000913
     233         -0.246233        2.000000        0.00000030        0.00000159        0.00000003
     234         -0.244651        2.000000        0.00000007        0.00000047        0.00000001
     235         -0.243092        2.000000        0.00000176        0.00000624        0.00000013
     236         -0.242544        2.000000        0.00000000        0.00000000        0.00000000
     237         -0.241048        2.000000        0.00000029        0.00000337        0.00000006
     238         -0.240546        2.000000        0.00005802        0.00060494        0.00001147
     239         -0.237982        2.000000        0.00001836        0.00020489        0.00000376
     240         -0.237798        2.000000        0.00000001        0.00000007        0.00000000
     241         -0.236566        2.000000        0.00000078        0.00000250        0.00000004
     242         -0.235920        2.000000        0.00000009        0.00000038        0.00000000
     243         -0.233145        2.000000        0.00000000        0.00000000        0.00000000
     244         -0.232785        2.000000        0.00003121        0.00010904        0.00000199
     245         -0.232224        2.000000        0.00006243        0.00020891        0.00000387
     246         -0.232174        2.000000        0.00000000        0.00000001        0.00000000
     247         -0.232015        2.000000        0.00000001        0.00000003        0.00000000
     248         -0.230744        2.000000        0.00000002        0.00000008        0.00000000
     249         -0.230697        2.000000        0.00001295        0.00004725        0.00000086
     250         -0.229959        2.000000        0.00000009        0.00000027        0.00000001
     251         -0.229741        2.000000        0.00031361        0.00101551        0.00001928
     252         -0.228898        2.000000        0.00004561        0.00013677        0.00000272
     253         -0.227939        2.000000        0.00000618        0.00005791        0.00000078
     254         -0.227542        2.000000        0.00010720        0.00030115        0.00000703
     255         -0.227010        2.000000        0.00169804        0.00492536        0.00011243
     256         -0.226860        2.000000        0.00000003        0.00000010        0.00000000
     257         -0.226780        2.000000        0.00041857        0.00121395        0.00002896
     258         -0.226656        2.000000        0.00022300        0.00127568        0.00002206
     259         -0.226503        2.000000        0.00000000        0.00000002        0.00000000
     260         -0.226036        2.000000        0.00025860        0.00079996        0.00001517
     261         -0.225667        2.000000        0.00000001        0.00000002        0.00000000
     262         -0.225511        2.000000        0.00000218        0.00000690        0.00000014
     263         -0.224716        2.000000        0.00264519        0.00815067        0.00016338
     264         -0.224218        2.000000        0.00027280        0.00084520        0.00001852
     265         -0.223677        2.000000        0.00017597        0.00051566        0.00001071
     266         -0.223438        2.000000        0.08593829        0.25136183        0.00522832
     267         -0.223292        2.000000        0.00401474        0.01170392        0.00024458
     268         -0.223025        2.000000        0.03103948        0.09072058        0.00189583
     269         -0.222436        2.000000        0.05317010        0.15469707        0.00324354
     270         -0.222159        2.000000        0.00000024        0.00000074        0.00000002
     271         -0.221905        2.000000        0.02709836        0.08005463        0.00168832
     272         -0.221185        2.000000        0.00000217        0.00000664        0.00000014
     273         -0.220659        2.000000        0.00002239        0.00021417        0.00000377
     274         -0.219665        2.000000        0.00533165        0.01530352        0.00035004
     275         -0.219630        2.000000        0.00019057        0.00054837        0.00001252
     276         -0.218916        2.000000        0.00002375        0.00030606        0.00000493
     277         -0.218551        2.000000        0.00058813        0.00179156        0.00003856
     278         -0.218398        2.000000        0.00043720        0.00137817        0.00002857
     279         -0.218139        2.000000        0.00000067        0.00000219        0.00000004
     280         -0.217698        2.000000        0.00004653        0.00037556        0.00000402
     281         -0.217580        2.000000        0.00000057        0.00000564        0.00000006
     282         -0.217435        2.000000        0.00003382        0.00017550        0.00000454
     283         -0.216483        2.000000        0.00172571        0.00485210        0.00010742
     284         -0.216363        2.000000        0.00000199        0.00000984        0.00000023
     285         -0.216254        2.000000        0.00068488        0.00216398        0.00005632
     286         -0.215958        2.000000        0.00000017        0.00000222        0.00000005
     287         -0.215645        2.000000        0.00000288        0.00001305        0.00000029
     288         -0.215217        2.000000        0.00020729        0.00067495        0.00001390
     289         -0.214936        2.000000        0.00252083        0.00771987        0.00017516
     290         -0.214221        2.000000        0.00038141        0.00141287        0.00003861
     291         -0.213816        2.000000        0.01866065        0.07861732        0.00175552
     292         -0.213592        2.000000        0.00000423        0.00001718        0.00000038
     293         -0.213468        2.000000        0.00006837        0.00043743        0.00001037
     294         -0.213241        2.000000        0.00065736        0.00326442        0.00007272
     295         -0.213184        2.000000        0.00000082        0.00000427        0.00000011
     296         -0.212817        2.000000        0.00000194        0.00001060        0.00000027
     297         -0.212583        2.000000        0.00407578        0.01633049        0.00038698
     298         -0.212273        2.000000        0.00001342        0.00004807        0.00000108
     299         -0.211896        2.000000        0.00043304        0.00226355        0.00004826
     300         -0.211391        2.000000        0.00001436        0.00004514        0.00000127
     301         -0.211339        2.000000        0.00004232        0.00012520        0.00000308
     302         -0.211269        2.000000        0.00000879        0.00003779        0.00000079
     303         -0.211046        2.000000        0.00000815        0.00002283        0.00000055
     304         -0.210412        2.000000        0.00008835        0.00050553        0.00001320
     305         -0.210309        2.000000        0.00002245        0.00015133        0.00000493
     306         -0.210188        2.000000        0.00001422        0.00008902        0.00000266
     307         -0.210166        2.000000        0.00000804        0.00002697        0.00000069