# Projected DOS for list 92 of 3 atoms, at iteration step i = 0, E(Fermi) =     0.101540 a.u.
#     MO Eigenvalue [a.u.]      Occupation                 s                 p                 d
       1         -0.708367        2.000000        0.00000000        0.00000000        0.00000000
       2         -0.696979        2.000000        0.00000002        0.00000001        0.00000000
       3         -0.695301        2.000000        0.00000000        0.00000000        0.00000000
       4         -0.694902        2.000000        0.00000000        0.00000000        0.00000000
       5         -0.690081        2.000000        0.00000000        0.00000000        0.00000000
       6         -0.686805        2.000000        0.00000082        0.00000037        0.00000001
       7         -0.686571        2.000000        0.00000007        0.00000003        0.00000000
       8         -0.685003        2.000000        0.00000008        0.00000003        0.00000000
       9         -0.684036        2.000000        0.00000333        0.00000138        0.00000003
      10         -0.683920        2.000000        0.00000000        0.00000000        0.00000000
      11         -0.681735        2.000000        0.00000244        0.00000091        0.00000002
      12         -0.679408        2.000000        0.00000047        0.00000017        0.00000000
      13         -0.678932        2.000000        0.00000001        0.00000000        0.00000000
      14         -0.678381        2.000000        0.00002672        0.00000919        0.00000012
      15         -0.677963        2.000000        0.00000036        0.00000016        0.00000000
      16         -0.677540        2.000000        0.00003355        0.00001169        0.00000017
      17         -0.677381        2.000000        0.00000000        0.00000000        0.00000000
      18         -0.677246        2.000000        0.00004544        0.00001550        0.00000020
      19         -0.675827        2.000000        0.00000085        0.00000026        0.00000000
      20         -0.675724        2.000000        0.00000000        0.00000000        0.00000000
      21         -0.674932        2.000000        0.00000000        0.00000000        0.00000000
      22         -0.674380        2.000000        0.00003096        0.00000918        0.00000007
      23         -0.673393        2.000000        0.00000261        0.00000074        0.00000000
      24         -0.672924        2.000000        0.00000007        0.00000001        0.00000000
      25         -0.672289        2.000000        0.00000001        0.00000006        0.00000000
      26         -0.672227        2.000000        0.00003817        0.00000852        0.00000013
      27         -0.671275        2.000000        0.00000029        0.00000004        0.00000000
      28         -0.670770        2.000000        0.00011079        0.00002955        0.00000005
      29         -0.670400        2.000000        0.00017377        0.00004701        0.00000014
      30         -0.669922        2.000000        0.00051206        0.00013469        0.00000039
      31         -0.669606        2.000000        0.00000646        0.00000119        0.00000001
      32         -0.668947        2.000000        0.00070827        0.00016631        0.00000048
      33         -0.668931        2.000000        0.00035497        0.00008494        0.00000023
      34         -0.668431        2.000000        0.00079767        0.00017956        0.00000101
      35         -0.668008        2.000000        0.00381868        0.00098164        0.00001057
      36         -0.667083        2.000000        0.00094068        0.00022720        0.00000119
      37         -0.666996        2.000000        0.00000058        0.00000011        0.00000000
      38         -0.666939        2.000000        0.00006030        0.00001360        0.00000004
      39         -0.666646        2.000000        0.00000367        0.00001121        0.00000025
      40         -0.666363        2.000000        0.00152551        0.00042704        0.00000053
      41         -0.666281        2.000000        0.00000007        0.00000004        0.00000000
      42         -0.666129        2.000000        0.00116902        0.00029766        0.00000047
      43         -0.665867        2.000000        0.00177722        0.00045633        0.00000073
      44         -0.664404        2.000000        0.00000404        0.00000086        0.00000000
      45         -0.664061        2.000000        0.00019363        0.00005870        0.00000079
      46         -0.663948        2.000000        0.00002688        0.00000534        0.00000006
      47         -0.663550        2.000000        0.00432866        0.00104717        0.00000255
      48         -0.662943        2.000000        0.00000192        0.00000029        0.00000000
      49         -0.662627        2.000000        0.00261783        0.00062031        0.00000167
      50         -0.661965        2.000000        0.05575819        0.01301156        0.00003862
      51         -0.661528        2.000000        0.00000306        0.00000165        0.00000001
      52         -0.660900        2.000000        0.00001257        0.00000425        0.00000013
      53         -0.660166        2.000000        0.00062934        0.00014011        0.00000058
      54         -0.659683        2.000000        0.00000781        0.00000121        0.00000002
      55         -0.658835        2.000000        0.00030578        0.00006896        0.00000033
      56         -0.658814        2.000000        0.00003925        0.00000664        0.00000007
      57         -0.658691        2.000000        0.00003164        0.00000530        0.00000006
      58         -0.658084        2.000000        0.00012731        0.00003170        0.00000062
      59         -0.658073        2.000000        0.00000042        0.00000289        0.00000005
      60         -0.657975        2.000000        0.02894171        0.00589222        0.00004079
      61         -0.657678        2.000000        0.00000092        0.00000953        0.00000048
      62         -0.657592        2.000000        0.00781046        0.00162523        0.00001280
      63         -0.657226        2.000000        0.00011079        0.00002166        0.00000022
      64         -0.657087        2.000000        0.00324492        0.00065474        0.00000508
      65         -0.656742        2.000000        0.08877715        0.01754810        0.00015775
      66         -0.656449        2.000000        0.16604686        0.03379910        0.00029469
      67         -0.656215        2.000000        0.05162302        0.01055149        0.00008538
      68         -0.655700        2.000000        0.08485900        0.01780308        0.00014123
      69         -0.655174        2.000000        0.00031825        0.00007123        0.00000053
      70         -0.654827        2.000000        0.00361738        0.00076382        0.00000643
      71         -0.654660        2.000000        0.00008956        0.00002388        0.00000019
      72         -0.654406        2.000000        0.00324010        0.00076210        0.00000927
      73         -0.654250        2.000000        0.00017775        0.00004959        0.00000088
      74         -0.653619        2.000000        0.00082200        0.00019270        0.00000135
      75         -0.653105        2.000000        0.01821041        0.00443360        0.00003217
      76         -0.652904        2.000000        0.00296918        0.00073279        0.00000572
      77         -0.652612        2.000000        0.00363137        0.00076402        0.00000684
      78         -0.652411        2.000000        0.00014211        0.00004766        0.00000124
      79         -0.652213        2.000000        0.00005466        0.00004425        0.00000004
      80         -0.652083        2.000000        0.00151331        0.00045556        0.00000210
      81         -0.651807        2.000000        0.00012036        0.00007049        0.00000169
      82         -0.651706        2.000000        0.00011477        0.00003216        0.00000042
      83         -0.651237        2.000000        0.00149203        0.00069586        0.00001082
      84         -0.651053        2.000000        0.00040373        0.00026104        0.00000560
      85         -0.650411        2.000000        0.00140896        0.00039391        0.00000198
      86         -0.650326        2.000000        0.00031575        0.00010461        0.00000044
      87         -0.650219        2.000000        0.00071762        0.00031857        0.00000571
      88         -0.650130        2.000000        0.00218629        0.00053840        0.00000365
      89         -0.649849        2.000000        0.00834693        0.00231617        0.00001493
      90         -0.649510        2.000000        0.00000668        0.00013327        0.00000845
      91         -0.648737        2.000000        0.00666605        0.00233728        0.00001111
      92         -0.648608        2.000000        0.00047791        0.00018705        0.00000052
      93         -0.648509        2.000000        0.00735003        0.00202952        0.00002276
      94         -0.648091        2.000000        0.00024520        0.00013227        0.00000032
      95         -0.647956        2.000000        0.00000157        0.00001931        0.00000006
      96         -0.647875        2.000000        0.00060086        0.00018626        0.00000137
      97         -0.647628        2.000000        0.00002946        0.00001900        0.00000085
      98         -0.647248        2.000000        0.00000760        0.00003986        0.00000059
      99         -0.646997        2.000000        0.00005714        0.00002259        0.00000012
     100         -0.646893        2.000000        0.00001809        0.00001008        0.00000003
     101         -0.646794        2.000000        0.00038067        0.00028827        0.00000488
     102         -0.645843        2.000000        0.00021389        0.00075543        0.00000090
     103         -0.645519        2.000000        0.00026225        0.00015778        0.00001027
     104         -0.645232        2.000000        0.00100224        0.00030113        0.00000516
     105         -0.644964        2.000000        0.00059375        0.00019571        0.00000894
     106         -0.644451        2.000000        0.00025441        0.00025310        0.00000434
     107         -0.644170        2.000000        0.00414035        0.00106588        0.00004378
     108         -0.643891        2.000000        0.00348852        0.00104966        0.00005154
     109         -0.643862        2.000000        0.00739985        0.00208599        0.00009020
     110         -0.643478        2.000000        0.00034505        0.00019703        0.00000216
     111         -0.643325        2.000000        0.01034207        0.00307021        0.00004964
     112         -0.642934        2.000000        0.00021281        0.00009132        0.00000309
     113         -0.642899        2.000000        0.00006962        0.00001850        0.00000050
     114         -0.642460        2.000000        0.00000151        0.00000667        0.00000015
     115         -0.642175        2.000000        0.00155464        0.00062056        0.00000249
     116         -0.642120        2.000000        0.00006051        0.00001826        0.00000019
     117         -0.641851        2.000000        0.00244723        0.00074049        0.00002347
     118         -0.641683        2.000000        0.00040262        0.00031244        0.00000050
     119         -0.641305        2.000000        0.00558685        0.00157944        0.00001981
     120         -0.641072        2.000000        0.00073327        0.00095734        0.00000661
     121         -0.640960        2.000000        0.00506039        0.00143820        0.00001576
     122         -0.640793        2.000000        0.00233285        0.00067013        0.00000746
     123         -0.640578        2.000000        0.00004103        0.00061727        0.00000252
     124         -0.640464        2.000000        0.00010653        0.00014390        0.00000074
     125         -0.640169        2.000000        0.01823940        0.00652773        0.00004174
     126         -0.639736        2.000000        0.00772939        0.00333502        0.00001009
     127         -0.639499        2.000000        0.00057807        0.00049286        0.00000504
     128         -0.639154        2.000000        0.00149624        0.00050907        0.00000224
     129         -0.639060        2.000000        0.00122492        0.00033752        0.00000303
     130         -0.638976        2.000000        0.00071854        0.00031001        0.00000070
     131         -0.638593        2.000000        0.00640982        0.00279290        0.00001189
     132         -0.638261        2.000000        0.00009023        0.00005607        0.00000109
     133         -0.638059        2.000000        0.00004497        0.00092853        0.00000335
     134         -0.637912        2.000000        0.00209021        0.00240267        0.00000498
     135         -0.637762        2.000000        0.00002657        0.00013099        0.00000047
     136         -0.637584        2.000000        0.00267246        0.00087595        0.00000602
     137         -0.636804        2.000000        0.00001895        0.00000862        0.00000010
     138         -0.636640        2.000000        0.00194076        0.00064389        0.00000660
     139         -0.636429        2.000000        0.00265042        0.00081167        0.00000791
     140         -0.635515        2.000000        0.00088567        0.00072525        0.00000209
     141         -0.634989        2.000000        0.00021486        0.00024969        0.00000242
     142         -0.634462        2.000000        0.00000484        0.00012716        0.00000017
     143         -0.634132        2.000000        0.00004573        0.00059038        0.00000798
     144         -0.633763        2.000000        0.00013196        0.00007651        0.00000023
     145         -0.633531        2.000000        0.00006731        0.00002868        0.00000038
     146         -0.632585        2.000000        0.00003874        0.00001929        0.00000045
     147         -0.632333        2.000000        0.00036599        0.00058023        0.00000063
     148         -0.632031        2.000000        0.00002964        0.00001256        0.00000010
     149         -0.631841        2.000000        0.00028193        0.00019322        0.00000007
     150         -0.631318        2.000000        0.00081425        0.00058252        0.00000059
     151         -0.630640        2.000000        0.00130386        0.00070961        0.00000091
     152         -0.630519        2.000000        0.00038673        0.00126942        0.00000860
     153         -0.630490        2.000000        0.00037318        0.00051214        0.00000152
     154         -0.629959        2.000000        0.00000494        0.00004210        0.00000049
     155         -0.629452        2.000000        0.00000457        0.00003706        0.00000058
     156         -0.629210        2.000000        0.00075334        0.00050094        0.00001402
     157         -0.628856        2.000000        0.00005658        0.00002164        0.00000127
     158         -0.628516        2.000000        0.00837089        0.00184172        0.00010973
     159         -0.628511        2.000000        0.00430832        0.00154227        0.00002486
     160         -0.628382        2.000000        0.00875442        0.00178384        0.00007921
     161         -0.628242        2.000000        0.00022173        0.00041465        0.00000218
     162         -0.628026        2.000000        0.00013402        0.00087954        0.00000961
     163         -0.627712        2.000000        0.00547405        0.00177615        0.00003345
     164         -0.627438        2.000000        0.00296212        0.00069945        0.00002173
     165         -0.627281        2.000000        0.00152819        0.00216022        0.00007770
     166         -0.626983        2.000000        0.01029204        0.00293342        0.00008689
     167         -0.626804        2.000000        0.00226343        0.00071659        0.00001248
     168         -0.626588        2.000000        0.01183717        0.00357065        0.00008285
     169         -0.626019        2.000000        0.00001554        0.00000646        0.00000008
     170         -0.625843        2.000000        0.00466577        0.00164231        0.00003095
     171         -0.625019        2.000000        0.00191138        0.00093273        0.00000762
     172         -0.624831        2.000000        0.00000590        0.00004301        0.00000015
     173         -0.624166        2.000000        0.00032127        0.00016777        0.00000053
     174         -0.623906        2.000000        0.00100208        0.00021414        0.00000890
     175         -0.623799        2.000000        0.00002738        0.00001647        0.00000016
     176         -0.623716        2.000000        0.00027646        0.00020714        0.00000112
     177         -0.623382        2.000000        0.00023037        0.00075222        0.00000333
     178         -0.623067        2.000000        0.00000012        0.00000083        0.00000002
     179         -0.622801        2.000000        0.00023487        0.00048010        0.00000231
     180         -0.622617        2.000000        0.00019843        0.00006036        0.00000093
     181         -0.622499        2.000000        0.00012365        0.00005295        0.00000029
     182         -0.621672        2.000000        0.00003761        0.00005986        0.00000044
     183         -0.621151        2.000000        0.00024337        0.00011392        0.00000896
     184         -0.620781        2.000000        0.00014891        0.00034745        0.00000364
     185         -0.620579        2.000000        0.00016045        0.00004525        0.00000036
     186         -0.619930        2.000000        0.00001065        0.00002474        0.00000030
     187         -0.618694        2.000000        0.00007273        0.00002830        0.00000124
     188         -0.618461        2.000000        0.00002341        0.00001125        0.00000016
     189         -0.618211        2.000000        0.00000038        0.00000147        0.00000004
     190         -0.617957        2.000000        0.00002151        0.00005528        0.00000005
     191         -0.617770        2.000000        0.00009860        0.00010201        0.00000025
     192         -0.617636        2.000000        0.00008090        0.00035501        0.00000130
     193         -0.617200        2.000000        0.00137044        0.00045490        0.00000375
     194         -0.616810        2.000000        0.00029067        0.00010750        0.00000154
     195         -0.615618        2.000000        0.00674197        0.00510107        0.00000851
     196         -0.615377        2.000000        0.00002397        0.00004009        0.00000007
     197         -0.615228        2.000000        0.00810214        0.00688887        0.00001085
     198         -0.614941        2.000000        0.00000077        0.00000039        0.00000000
     199         -0.613862        2.000000        0.00016672        0.00014871        0.00000025
     200         -0.613167        2.000000        0.00055296        0.00088534        0.00000149
     201         -0.612937        2.000000        0.00000019        0.00000125        0.00000000
     202         -0.612465        2.000000        0.00001493        0.00051592        0.00000170
     203         -0.611371        2.000000        0.00049205        0.00061994        0.00000205
     204         -0.611273        2.000000        0.00043236        0.00054225        0.00000129
     205         -0.610903        2.000000        0.01220048        0.01634882        0.00004233
     206         -0.609912        2.000000        0.00042202        0.00019365        0.00000634
     207         -0.609442        2.000000        0.00040027        0.00046232        0.00000099
     208         -0.609149        2.000000        0.00025349        0.00020636        0.00000065
     209         -0.608882        2.000000        0.00000145        0.00000075        0.00000002
     210         -0.608562        2.000000        0.00000074        0.00000047        0.00000000
     211         -0.608012        2.000000        0.00004489        0.00012818        0.00000056
     212         -0.607014        2.000000        0.00003824        0.00006255        0.00000019
     213         -0.606300        2.000000        0.00000026        0.00000340        0.00000006
     214         -0.605948        2.000000        0.00000097        0.00000113        0.00000001
     215         -0.605403        2.000000        0.00000216        0.00000152        0.00000003
     216         -0.604664        2.000000        0.00002143        0.00000671        0.00000013
     217         -0.604080        2.000000        0.00000811        0.00003319        0.00000015
     218         -0.603538        2.000000        0.00004255        0.00001680        0.00000025
     219         -0.603145        2.000000        0.00000474        0.00000451        0.00000020
     220         -0.602213        2.000000        0.00000436        0.00000894        0.00000005
     221         -0.601871        2.000000        0.00019412        0.00010805        0.00000165
     222         -0.600521        2.000000        0.00000188        0.00000247        0.00000025
     223         -0.599848        2.000000        0.00000532        0.00000307        0.00000006
     224         -0.598111        2.000000        0.00000970        0.00001214        0.00000046
     225         -0.597286        2.000000        0.00001690        0.00001493        0.00000052
     226         -0.597121        2.000000        0.00001306        0.00000981        0.00000043
     227         -0.595585        2.000000        0.00000050        0.00000075        0.00000000
     228         -0.591103        2.000000        0.00007728        0.00005965        0.00000304
     229         -0.582585        2.000000        0.00000001        0.00000002        0.00000000
     230         -0.576283        2.000000        0.00000001        0.00000002        0.00000000
     231         -0.258156        2.000000        0.00000000        0.00000000        0.00000000
     232         -0.253473        2.000000        0.00000000        0.00000000        0.00000000
     233         -0.246233        2.000000        0.00000000        0.00000000        0.00000000
     234         -0.244651        2.000000        0.00000000        0.00000000        0.00000000
     235         -0.243092        2.000000        0.00000000        0.00000000        0.00000000
     236         -0.242544        2.000000        0.00000000        0.00000000        0.00000000
     237         -0.241048        2.000000        0.00000000        0.00000000        0.00000000
     238         -0.240546        2.000000        0.00000001        0.00000005        0.00000000
     239         -0.237982        2.000000        0.00000004        0.00000016        0.00000000
     240         -0.237798        2.000000        0.00000000        0.00000000        0.00000000
     241         -0.236566        2.000000        0.00000000        0.00000000        0.00000000
     242         -0.235920        2.000000        0.00000000        0.00000000        0.00000000
     243         -0.233145        2.000000        0.00000000        0.00000000        0.00000000
     244         -0.232785        2.000000        0.00000000        0.00000001        0.00000000
     245         -0.232224        2.000000        0.00000000        0.00000002        0.00000000
     246         -0.232174        2.000000        0.00000000        0.00000000        0.00000000
     247         -0.232015        2.000000        0.00000000        0.00000000        0.00000000
     248         -0.230744        2.000000        0.00000000        0.00000001        0.00000000
     249         -0.230697        2.000000        0.00000001        0.00000002        0.00000000
     250         -0.229959        2.000000        0.00000000        0.00000001        0.00000000
     251         -0.229741        2.000000        0.00000009        0.00000044        0.00000001
     252         -0.228898        2.000000        0.00000002        0.00000012        0.00000000
     253         -0.227939        2.000000        0.00000060        0.00000175        0.00000004
     254         -0.227542        2.000000        0.00000005        0.00000015        0.00000000
     255         -0.227010        2.000000        0.00000140        0.00000399        0.00000008
     256         -0.226860        2.000000        0.00000010        0.00000027        0.00000001
     257         -0.226780        2.000000        0.00000257        0.00000719        0.00000014
     258         -0.226656        2.000000        0.00000070        0.00000221        0.00000004
     259         -0.226503        2.000000        0.00000925        0.00002566        0.00000052
     260         -0.226036        2.000000        0.00000082        0.00000241        0.00000004
     261         -0.225667        2.000000        0.00000198        0.00000554        0.00000011
     262         -0.225511        2.000000        0.00025374        0.00071451        0.00001360
     263         -0.224716        2.000000        0.00000884        0.00002526        0.00000047
     264         -0.224218        2.000000        0.00027022        0.00075976        0.00001439
     265         -0.223677        2.000000        0.00000081        0.00000228        0.00000004
     266         -0.223438        2.000000        0.00366620        0.01028016        0.00019729
     267         -0.223292        2.000000        0.12713576        0.35613880        0.00683193
     268         -0.223025        2.000000        0.00021463        0.00060047        0.00001164
     269         -0.222436        2.000000        0.00002529        0.00007151        0.00000142
     270         -0.222159        2.000000        0.00000005        0.00000014        0.00000000
     271         -0.221905        2.000000        0.00002798        0.00007739        0.00000154
     272         -0.221185        2.000000        0.00000006        0.00000016        0.00000000
     273         -0.220659        2.000000        0.00001150        0.00003258        0.00000065
     274         -0.219665        2.000000        0.00000049        0.00000211        0.00000005
     275         -0.219630        2.000000        0.00000008        0.00000024        0.00000000
     276         -0.218916        2.000000        0.00000194        0.00000994        0.00000022
     277         -0.218551        2.000000        0.00000017        0.00000059        0.00000001
     278         -0.218398        2.000000        0.00000007        0.00000041        0.00000001
     279         -0.218139        2.000000        0.00000578        0.00001596        0.00000032
     280         -0.217698        2.000000        0.00003044        0.00009122        0.00000184
     281         -0.217580        2.000000        0.00000634        0.00001757        0.00000035
     282         -0.217435        2.000000        0.00000992        0.00002729        0.00000057
     283         -0.216483        2.000000        0.00066495        0.00184927        0.00003868
     284         -0.216363        2.000000        0.00001193        0.00003291        0.00000069
     285         -0.216254        2.000000        0.00006499        0.00019661        0.00000403
     286         -0.215958        2.000000        0.00000068        0.00000168        0.00000005
     287         -0.215645        2.000000        0.00000286        0.00000869        0.00000016
     288         -0.215217        2.000000        0.00695848        0.01891951        0.00038950
     289         -0.214936        2.000000        0.00000595        0.00004957        0.00000110
     290         -0.214221        2.000000        0.00008545        0.00073017        0.00001122
     291         -0.213816        2.000000        0.00024272        0.00071982        0.00001534
     292         -0.213592        2.000000        0.00000026        0.00000142        0.00000002
     293         -0.213468        2.000000        0.00007498        0.00040529        0.00000566
     294         -0.213241        2.000000        0.00025462        0.00082271        0.00001749
     295         -0.213184        2.000000        0.00000151        0.00000624        0.00000013
     296         -0.212817        2.000000        0.00000101        0.00000314        0.00000006
     297         -0.212583        2.000000        0.00100252        0.00278575        0.00005947
     298         -0.212273        2.000000        0.00000391        0.00001159        0.00000022
     299         -0.211896        2.000000        0.00063583        0.00318438        0.00005330
     300         -0.211391        2.000000        0.00061918        0.00175245        0.00003645
     301         -0.211339        2.000000        0.00107307        0.00306147        0.00006350
     302         -0.211269        2.000000        0.00190653        0.00523188        0.00010523
     303         -0.211046        2.000000        0.00012960        0.00037374        0.00000673
     304         -0.210412        2.000000        0.00010814        0.00118506        0.00001732
     305         -0.210309        2.000000        0.00003520        0.00024709        0.00000336
     306         -0.210188        2.000000        0.00023507        0.00074142        0.00001621
     307         -0.210166        2.000000        0.00009286        0.00026701        0.00000542