# Projected DOS for list 201 of 3 atoms, at iteration step i = 0, E(Fermi) =     0.101540 a.u.
#     MO Eigenvalue [a.u.]      Occupation                 s                 p                 d
       1         -0.708367        2.000000        0.00000000        0.00000000        0.00000000
       2         -0.696979        2.000000        0.00146631        0.00058259        0.00000373
       3         -0.695301        2.000000        0.00001690        0.00000740        0.00000005
       4         -0.694902        2.000000        0.00000000        0.00000000        0.00000000
       5         -0.690081        2.000000        0.00000000        0.00000000        0.00000000
       6         -0.686805        2.000000        0.00990370        0.00162232        0.00002003
       7         -0.686571        2.000000        0.00058760        0.00010123        0.00000120
       8         -0.685003        2.000000        0.00132336        0.00030252        0.00000166
       9         -0.684036        2.000000        0.08040358        0.01740486        0.00009624
      10         -0.683920        2.000000        0.00000000        0.00000000        0.00000000
      11         -0.681735        2.000000        0.09628693        0.01768805        0.00015285
      12         -0.679408        2.000000        0.00000412        0.00000609        0.00000006
      13         -0.678932        2.000000        0.00000000        0.00000000        0.00000000
      14         -0.678381        2.000000        0.02615745        0.00715391        0.00002201
      15         -0.677963        2.000000        0.00771991        0.00250031        0.00000909
      16         -0.677540        2.000000        0.10667478        0.02749924        0.00009466
      17         -0.677381        2.000000        0.00000001        0.00000000        0.00000000
      18         -0.677246        2.000000        0.07822039        0.02053132        0.00007023
      19         -0.675827        2.000000        0.00051941        0.00022379        0.00000070
      20         -0.675724        2.000000        0.00000000        0.00000000        0.00000000
      21         -0.674932        2.000000        0.00000000        0.00000000        0.00000000
      22         -0.674380        2.000000        0.00206366        0.00135913        0.00000318
      23         -0.673393        2.000000        0.00004470        0.00005130        0.00000005
      24         -0.672924        2.000000        0.00000005        0.00000002        0.00000000
      25         -0.672289        2.000000        0.00008325        0.00004640        0.00000009
      26         -0.672227        2.000000        0.00209017        0.00040064        0.00000525
      27         -0.671275        2.000000        0.00000036        0.00000010        0.00000000
      28         -0.670770        2.000000        0.00636124        0.00129978        0.00002957
      29         -0.670400        2.000000        0.00219957        0.00082259        0.00002558
      30         -0.669922        2.000000        0.00268878        0.00210958        0.00005964
      31         -0.669606        2.000000        0.00000005        0.00000037        0.00000000
      32         -0.668947        2.000000        0.00479988        0.00124859        0.00001035
      33         -0.668931        2.000000        0.00280367        0.00071168        0.00000638
      34         -0.668431        2.000000        0.00234185        0.00169884        0.00000268
      35         -0.668008        2.000000        0.00026997        0.00022472        0.00000083
      36         -0.667083        2.000000        0.00267048        0.00082169        0.00000802
      37         -0.666996        2.000000        0.00000008        0.00000016        0.00000000
      38         -0.666939        2.000000        0.00091787        0.00028008        0.00000108
      39         -0.666646        2.000000        0.00069174        0.00024722        0.00000667
      40         -0.666363        2.000000        0.02476062        0.00654501        0.00004810
      41         -0.666281        2.000000        0.00000707        0.00000156        0.00000003
      42         -0.666129        2.000000        0.03990054        0.00886067        0.00013409
      43         -0.665867        2.000000        0.02760771        0.00739530        0.00004901
      44         -0.664404        2.000000        0.00011025        0.00002402        0.00000037
      45         -0.664061        2.000000        0.05476878        0.01270013        0.00016269
      46         -0.663948        2.000000        0.00145223        0.00033338        0.00000516
      47         -0.663550        2.000000        0.00480413        0.00128113        0.00004037
      48         -0.662943        2.000000        0.00000004        0.00000003        0.00000000
      49         -0.662627        2.000000        0.00000372        0.00000875        0.00000002
      50         -0.661965        2.000000        0.00618526        0.00128762        0.00003331
      51         -0.661528        2.000000        0.00000049        0.00000040        0.00000000
      52         -0.660900        2.000000        0.00002623        0.00001662        0.00000013
      53         -0.660166        2.000000        0.00569967        0.00232148        0.00000747
      54         -0.659683        2.000000        0.00000074        0.00000032        0.00000000
      55         -0.658835        2.000000        0.02689693        0.01312697        0.00003707
      56         -0.658814        2.000000        0.00009345        0.00004666        0.00000012
      57         -0.658691        2.000000        0.00001523        0.00000755        0.00000002
      58         -0.658084        2.000000        0.00013063        0.00045093        0.00000301
      59         -0.658073        2.000000        0.00010146        0.00014556        0.00000098
      60         -0.657975        2.000000        0.00016406        0.00021393        0.00000078
      61         -0.657678        2.000000        0.00044034        0.00256641        0.00001539
      62         -0.657592        2.000000        0.00099505        0.00120241        0.00000380
      63         -0.657226        2.000000        0.00000206        0.00000081        0.00000001
      64         -0.657087        2.000000        0.00040318        0.00102064        0.00000334
      65         -0.656742        2.000000        0.00010970        0.00007043        0.00000009
      66         -0.656449        2.000000        0.00044573        0.00028420        0.00001223
      67         -0.656215        2.000000        0.00014972        0.00091942        0.00000846
      68         -0.655700        2.000000        0.00030266        0.00043207        0.00000055
      69         -0.655174        2.000000        0.00000421        0.00000190        0.00000001
      70         -0.654827        2.000000        0.00519226        0.00171398        0.00001686
      71         -0.654660        2.000000        0.00004068        0.00001656        0.00000009
      72         -0.654406        2.000000        0.02672208        0.00935384        0.00007692
      73         -0.654250        2.000000        0.01766748        0.00823449        0.00002398
      74         -0.653619        2.000000        0.00001272        0.00000300        0.00000007
      75         -0.653105        2.000000        0.00004747        0.00001170        0.00000059
      76         -0.652904        2.000000        0.00006810        0.00004294        0.00000036
      77         -0.652612        2.000000        0.00014418        0.00004418        0.00000120
      78         -0.652411        2.000000        0.00082381        0.00075865        0.00000105
      79         -0.652213        2.000000        0.00000265        0.00000211        0.00000002
      80         -0.652083        2.000000        0.00001134        0.00000985        0.00000006
      81         -0.651807        2.000000        0.00065102        0.00024700        0.00000384
      82         -0.651706        2.000000        0.00012341        0.00004589        0.00000080
      83         -0.651237        2.000000        0.00087115        0.00025593        0.00000615
      84         -0.651053        2.000000        0.00114074        0.00034418        0.00000810
      85         -0.650411        2.000000        0.00008205        0.00002395        0.00000080
      86         -0.650326        2.000000        0.00083743        0.00020120        0.00000547
      87         -0.650219        2.000000        0.00038014        0.00008691        0.00000203
      88         -0.650130        2.000000        0.00334089        0.00088774        0.00001841
      89         -0.649849        2.000000        0.00021191        0.00014249        0.00000065
      90         -0.649510        2.000000        0.00096350        0.00028054        0.00001204
      91         -0.648737        2.000000        0.00001283        0.00001499        0.00000075
      92         -0.648608        2.000000        0.00002240        0.00001702        0.00000050
      93         -0.648509        2.000000        0.00387675        0.00122157        0.00001865
      94         -0.648091        2.000000        0.00028078        0.00009250        0.00000082
      95         -0.647956        2.000000        0.00000005        0.00000002        0.00000000
      96         -0.647875        2.000000        0.00103218        0.00043753        0.00000470
      97         -0.647628        2.000000        0.00001407        0.00014582        0.00000554
      98         -0.647248        2.000000        0.00019102        0.00008280        0.00000045
      99         -0.646997        2.000000        0.00000414        0.00000095        0.00000004
     100         -0.646893        2.000000        0.00000009        0.00000049        0.00000001
     101         -0.646794        2.000000        0.01580170        0.00470442        0.00020813
     102         -0.645843        2.000000        0.00579668        0.00178597        0.00007286
     103         -0.645519        2.000000        0.00494508        0.00136095        0.00006498
     104         -0.645232        2.000000        0.00062457        0.00020149        0.00001070
     105         -0.644964        2.000000        0.00892792        0.00369973        0.00003583
     106         -0.644451        2.000000        0.00179185        0.00046933        0.00002329
     107         -0.644170        2.000000        0.00668921        0.00436770        0.00001746
     108         -0.643891        2.000000        0.00005613        0.00018663        0.00000408
     109         -0.643862        2.000000        0.00176434        0.00186859        0.00001602
     110         -0.643478        2.000000        0.00065250        0.00035328        0.00000182
     111         -0.643325        2.000000        0.00004772        0.00007991        0.00000397
     112         -0.642934        2.000000        0.00037349        0.00011186        0.00000213
     113         -0.642899        2.000000        0.00002919        0.00005716        0.00000031
     114         -0.642460        2.000000        0.00253770        0.00119534        0.00000660
     115         -0.642175        2.000000        0.00000493        0.00000961        0.00000012
     116         -0.642120        2.000000        0.00007209        0.00010102        0.00000114
     117         -0.641851        2.000000        0.00018181        0.00006350        0.00000280
     118         -0.641683        2.000000        0.00000440        0.00004112        0.00000188
     119         -0.641305        2.000000        0.00020406        0.00008653        0.00000259
     120         -0.641072        2.000000        0.00036143        0.00021482        0.00000376
     121         -0.640960        2.000000        0.00000904        0.00004095        0.00000144
     122         -0.640793        2.000000        0.00008101        0.00003646        0.00000050
     123         -0.640578        2.000000        0.00039999        0.00013358        0.00000537
     124         -0.640464        2.000000        0.00026680        0.00006452        0.00000243
     125         -0.640169        2.000000        0.00000065        0.00001245        0.00000073
     126         -0.639736        2.000000        0.00003241        0.00001888        0.00000097
     127         -0.639499        2.000000        0.00000338        0.00000657        0.00000020
     128         -0.639154        2.000000        0.00000602        0.00003635        0.00000028
     129         -0.639060        2.000000        0.00001858        0.00000985        0.00000015
     130         -0.638976        2.000000        0.00004912        0.00002039        0.00000100
     131         -0.638593        2.000000        0.00011430        0.00007701        0.00000039
     132         -0.638261        2.000000        0.00012318        0.00009998        0.00000101
     133         -0.638059        2.000000        0.00223918        0.00232344        0.00000503
     134         -0.637912        2.000000        0.00177154        0.00182953        0.00000285
     135         -0.637762        2.000000        0.00077982        0.00040213        0.00000129
     136         -0.637584        2.000000        0.00001302        0.00004170        0.00000017
     137         -0.636804        2.000000        0.00001525        0.00002274        0.00000004
     138         -0.636640        2.000000        0.00005158        0.00006929        0.00000015
     139         -0.636429        2.000000        0.00009594        0.00011545        0.00000023
     140         -0.635515        2.000000        0.00004922        0.00002497        0.00000022
     141         -0.634989        2.000000        0.00003628        0.00004934        0.00000014
     142         -0.634462        2.000000        0.00001052        0.00000335        0.00000012
     143         -0.634132        2.000000        0.00004417        0.00003999        0.00000020
     144         -0.633763        2.000000        0.00000255        0.00000236        0.00000002
     145         -0.633531        2.000000        0.00000297        0.00000357        0.00000010
     146         -0.632585        2.000000        0.00000925        0.00000674        0.00000010
     147         -0.632333        2.000000        0.00000302        0.00000716        0.00000006
     148         -0.632031        2.000000        0.00000234        0.00000192        0.00000001
     149         -0.631841        2.000000        0.00000339        0.00000232        0.00000003
     150         -0.631318        2.000000        0.00001509        0.00004712        0.00000032
     151         -0.630640        2.000000        0.00002259        0.00000911        0.00000049
     152         -0.630519        2.000000        0.00000591        0.00002194        0.00000022
     153         -0.630490        2.000000        0.00006889        0.00002890        0.00000044
     154         -0.629959        2.000000        0.00000178        0.00000121        0.00000008
     155         -0.629452        2.000000        0.00001616        0.00000620        0.00000030
     156         -0.629210        2.000000        0.00005564        0.00002486        0.00000104
     157         -0.628856        2.000000        0.00000056        0.00000065        0.00000005
     158         -0.628516        2.000000        0.00001707        0.00006470        0.00000510
     159         -0.628511        2.000000        0.00000287        0.00002960        0.00000138
     160         -0.628382        2.000000        0.00000629        0.00004092        0.00000267
     161         -0.628242        2.000000        0.00000664        0.00000990        0.00000064
     162         -0.628026        2.000000        0.00000691        0.00002223        0.00000052
     163         -0.627712        2.000000        0.00005790        0.00005216        0.00000091
     164         -0.627438        2.000000        0.00012464        0.00004378        0.00000201
     165         -0.627281        2.000000        0.00005294        0.00012538        0.00000908
     166         -0.626983        2.000000        0.00000239        0.00001270        0.00000022
     167         -0.626804        2.000000        0.00000161        0.00000306        0.00000012
     168         -0.626588        2.000000        0.00017443        0.00009604        0.00000127
     169         -0.626019        2.000000        0.00000043        0.00000020        0.00000000
     170         -0.625843        2.000000        0.00027940        0.00038312        0.00000073
     171         -0.625019        2.000000        0.00003189        0.00005359        0.00000011
     172         -0.624831        2.000000        0.00000009        0.00000097        0.00000000
     173         -0.624166        2.000000        0.00002010        0.00002348        0.00000002
     174         -0.623906        2.000000        0.00074196        0.00025838        0.00000811
     175         -0.623799        2.000000        0.00000020        0.00000037        0.00000000
     176         -0.623716        2.000000        0.00025908        0.00015093        0.00000164
     177         -0.623382        2.000000        0.00000787        0.00005395        0.00000092
     178         -0.623067        2.000000        0.00000042        0.00000019        0.00000001
     179         -0.622801        2.000000        0.00000888        0.00000475        0.00000013
     180         -0.622617        2.000000        0.00009770        0.00012243        0.00000028
     181         -0.622499        2.000000        0.00071336        0.00120012        0.00000226
     182         -0.621672        2.000000        0.00153484        0.00051218        0.00003038
     183         -0.621151        2.000000        0.00000218        0.00001229        0.00000057
     184         -0.620781        2.000000        0.00143374        0.00051606        0.00001864
     185         -0.620579        2.000000        0.00000630        0.00001513        0.00000005
     186         -0.619930        2.000000        0.00010278        0.00008618        0.00000040
     187         -0.618694        2.000000        0.00000195        0.00000114        0.00000002
     188         -0.618461        2.000000        0.00033701        0.00013029        0.00000556
     189         -0.618211        2.000000        0.00000141        0.00000066        0.00000001
     190         -0.617957        2.000000        0.00003428        0.00001772        0.00000092
     191         -0.617770        2.000000        0.00051731        0.00019658        0.00000872
     192         -0.617636        2.000000        0.00007354        0.00003576        0.00000065
     193         -0.617200        2.000000        0.00006877        0.00002619        0.00000153
     194         -0.616810        2.000000        0.00000204        0.00000490        0.00000002
     195         -0.615618        2.000000        0.00000086        0.00000227        0.00000001
     196         -0.615377        2.000000        0.00006599        0.00002697        0.00000074
     197         -0.615228        2.000000        0.00000015        0.00000094        0.00000002
     198         -0.614941        2.000000        0.00000018        0.00000076        0.00000001
     199         -0.613862        2.000000        0.00000765        0.00000344        0.00000012
     200         -0.613167        2.000000        0.00000992        0.00000710        0.00000009
     201         -0.612937        2.000000        0.00000236        0.00000110        0.00000002
     202         -0.612465        2.000000        0.00003145        0.00002181        0.00000032
     203         -0.611371        2.000000        0.00002237        0.00001116        0.00000069
     204         -0.611273        2.000000        0.00000155        0.00000101        0.00000007
     205         -0.610903        2.000000        0.00000206        0.00000224        0.00000000
     206         -0.609912        2.000000        0.00028858        0.00012645        0.00000719
     207         -0.609442        2.000000        0.00000906        0.00003539        0.00000017
     208         -0.609149        2.000000        0.00007143        0.00003780        0.00000099
     209         -0.608882        2.000000        0.00000156        0.00000093        0.00000002
     210         -0.608562        2.000000        0.00000023        0.00000012        0.00000001
     211         -0.608012        2.000000        0.00000057        0.00000034        0.00000001
     212         -0.607014        2.000000        0.00000298        0.00000377        0.00000022
     213         -0.606300        2.000000        0.00000300        0.00000188        0.00000003
     214         -0.605948        2.000000        0.00000029        0.00000068        0.00000000
     215         -0.605403        2.000000        0.00000170        0.00000108        0.00000004
     216         -0.604664        2.000000        0.00002656        0.00006022        0.00000019
     217         -0.604080        2.000000        0.00000120        0.00000861        0.00000015
     218         -0.603538        2.000000        0.00001622        0.00004644        0.00000020
     219         -0.603145        2.000000        0.00001521        0.00001399        0.00000024
     220         -0.602213        2.000000        0.00000187        0.00001254        0.00000019
     221         -0.601871        2.000000        0.00004451        0.00002669        0.00000183
     222         -0.600521        2.000000        0.00000113        0.00000688        0.00000008
     223         -0.599848        2.000000        0.00000137        0.00000207        0.00000001
     224         -0.598111        2.000000        0.00000401        0.00000225        0.00000016
     225         -0.597286        2.000000        0.00001280        0.00000798        0.00000032
     226         -0.597121        2.000000        0.00000146        0.00000080        0.00000006
     227         -0.595585        2.000000        0.00000004        0.00000003        0.00000000
     228         -0.591103        2.000000        0.00004518        0.00002976        0.00000189
     229         -0.582585        2.000000        0.00000000        0.00000000        0.00000000
     230         -0.576283        2.000000        0.00000001        0.00000003        0.00000000
     231         -0.258156        2.000000        0.00000000        0.00000000        0.00000000
     232         -0.253473        2.000000        0.00006996        0.00022768        0.00000424
     233         -0.246233        2.000000        0.00000042        0.00000178        0.00000003
     234         -0.244651        2.000000        0.00000070        0.00000226        0.00000004
     235         -0.243092        2.000000        0.00000025        0.00000295        0.00000003
     236         -0.242544        2.000000        0.00000000        0.00000000        0.00000000
     237         -0.241048        2.000000        0.00000176        0.00002309        0.00000019
     238         -0.240546        2.000000        0.00059888        0.00314539        0.00004925
     239         -0.237982        2.000000        0.00017097        0.00092018        0.00001400
     240         -0.237798        2.000000        0.00000001        0.00000012        0.00000000
     241         -0.236566        2.000000        0.00000121        0.00000442        0.00000003
     242         -0.235920        2.000000        0.00000137        0.00000491        0.00000004
     243         -0.233145        2.000000        0.00000000        0.00000000        0.00000000
     244         -0.232785        2.000000        0.00012126        0.00051622        0.00000285
     245         -0.232224        2.000000        0.00031718        0.00110528        0.00001284
     246         -0.232174        2.000000        0.00000002        0.00000007        0.00000000
     247         -0.232015        2.000000        0.00000007        0.00000024        0.00000000
     248         -0.230744        2.000000        0.00000024        0.00000179        0.00000002
     249         -0.230697        2.000000        0.00010694        0.00078244        0.00000767
     250         -0.229959        2.000000        0.00000103        0.00000408        0.00000004
     251         -0.229741        2.000000        0.00598060        0.02269097        0.00020926
     252         -0.228898        2.000000        0.00165392        0.00587553        0.00006307
     253         -0.227939        2.000000        0.00070233        0.00230739        0.00003091
     254         -0.227542        2.000000        0.00001568        0.00005474        0.00000087
     255         -0.227010        2.000000        0.00224888        0.00707954        0.00012093
     256         -0.226860        2.000000        0.00000004        0.00000016        0.00000000
     257         -0.226780        2.000000        0.00134017        0.00481044        0.00005207
     258         -0.226656        2.000000        0.00075893        0.00273128        0.00004225
     259         -0.226503        2.000000        0.00000003        0.00000008        0.00000000
     260         -0.226036        2.000000        0.00031027        0.00100570        0.00001402
     261         -0.225667        2.000000        0.00000002        0.00000007        0.00000000
     262         -0.225511        2.000000        0.00000583        0.00001767        0.00000032
     263         -0.224716        2.000000        0.00556693        0.01684306        0.00029910
     264         -0.224218        2.000000        0.00685137        0.02065591        0.00037181
     265         -0.223677        2.000000        0.00000066        0.00000166        0.00000006
     266         -0.223438        2.000000        0.00109542        0.00286202        0.00007626
     267         -0.223292        2.000000        0.00000109        0.00000622        0.00000011
     268         -0.223025        2.000000        0.00261937        0.00818566        0.00013379
     269         -0.222436        2.000000        0.00002551        0.00010520        0.00000267
     270         -0.222159        2.000000        0.00000006        0.00000017        0.00000000
     271         -0.221905        2.000000        0.00015070        0.00057709        0.00001304
     272         -0.221185        2.000000        0.00000018        0.00000071        0.00000001
     273         -0.220659        2.000000        0.00000264        0.00011545        0.00000023
     274         -0.219665        2.000000        0.00156063        0.00424997        0.00010315
     275         -0.219630        2.000000        0.00004982        0.00013649        0.00000334
     276         -0.218916        2.000000        0.08816299        0.26093776        0.00532716
     277         -0.218551        2.000000        0.00905432        0.02716676        0.00052749
     278         -0.218398        2.000000        0.00660742        0.01991592        0.00038503
     279         -0.218139        2.000000        0.00003883        0.00011368        0.00000232
     280         -0.217698        2.000000        0.00048557        0.00285127        0.00004915
     281         -0.217580        2.000000        0.00002364        0.00006873        0.00000145
     282         -0.217435        2.000000        0.00043312        0.00242751        0.00003887
     283         -0.216483        2.000000        0.01059249        0.03128405        0.00071167
     284         -0.216363        2.000000        0.00030256        0.00089242        0.00001979
     285         -0.216254        2.000000        0.07066474        0.20878918        0.00471135
     286         -0.215958        2.000000        0.00000108        0.00000461        0.00000008
     287         -0.215645        2.000000        0.00001360        0.00003678        0.00000095
     288         -0.215217        2.000000        0.00006048        0.00024741        0.00000508
     289         -0.214936        2.000000        0.00030769        0.00087920        0.00001838
     290         -0.214221        2.000000        0.00005856        0.00040901        0.00000635
     291         -0.213816        2.000000        0.00003521        0.00028327        0.00000768
     292         -0.213592        2.000000        0.00000020        0.00000129        0.00000002
     293         -0.213468        2.000000        0.00019129        0.00064785        0.00001329
     294         -0.213241        2.000000        0.00027950        0.00220616        0.00003742
     295         -0.213184        2.000000        0.00000813        0.00002285        0.00000053
     296         -0.212817        2.000000        0.00000364        0.00001010        0.00000025
     297         -0.212583        2.000000        0.00117047        0.00386360        0.00008838
     298         -0.212273        2.000000        0.00000160        0.00000783        0.00000015
     299         -0.211896        2.000000        0.00030627        0.00198816        0.00004164
     300         -0.211391        2.000000        0.00004896        0.00015485        0.00000262
     301         -0.211339        2.000000        0.00003453        0.00013563        0.00000193
     302         -0.211269        2.000000        0.00009503        0.00028611        0.00000614
     303         -0.211046        2.000000        0.00008958        0.00031886        0.00000478
     304         -0.210412        2.000000        0.00125639        0.00433741        0.00006742
     305         -0.210309        2.000000        0.00016471        0.00061949        0.00000947
     306         -0.210188        2.000000        0.00013137        0.00040296        0.00000758
     307         -0.210166        2.000000        0.00001766        0.00005817        0.00000125