# Projected DOS for list 36 of 3 atoms, at iteration step i = 0, E(Fermi) =     0.101540 a.u.
#     MO Eigenvalue [a.u.]      Occupation                 s                 p                 d
       1         -0.708367        2.000000        0.00000000        0.00000000        0.00000000
       2         -0.696979        2.000000        0.00000000        0.00000000        0.00000000
       3         -0.695301        2.000000        0.00000000        0.00000000        0.00000000
       4         -0.694902        2.000000        0.00001349        0.00001771        0.00000011
       5         -0.690081        2.000000        0.00000053        0.00000041        0.00000000
       6         -0.686805        2.000000        0.00000000        0.00000000        0.00000000
       7         -0.686571        2.000000        0.00000000        0.00000000        0.00000000
       8         -0.685003        2.000000        0.00000000        0.00000000        0.00000000
       9         -0.684036        2.000000        0.00000000        0.00000000        0.00000000
      10         -0.683920        2.000000        0.00001993        0.00001682        0.00000005
      11         -0.681735        2.000000        0.00000000        0.00000000        0.00000000
      12         -0.679408        2.000000        0.00000000        0.00000000        0.00000000
      13         -0.678932        2.000000        0.00002606        0.00001137        0.00000031
      14         -0.678381        2.000000        0.00000000        0.00000000        0.00000000
      15         -0.677963        2.000000        0.00000000        0.00000000        0.00000000
      16         -0.677540        2.000000        0.00000000        0.00000000        0.00000000
      17         -0.677381        2.000000        0.00000225        0.00000098        0.00000001
      18         -0.677246        2.000000        0.00000000        0.00000000        0.00000000
      19         -0.675827        2.000000        0.00000000        0.00000000        0.00000000
      20         -0.675724        2.000000        0.00000144        0.00000422        0.00000005
      21         -0.674932        2.000000        0.00000038        0.00000032        0.00000000
      22         -0.674380        2.000000        0.00000000        0.00000000        0.00000000
      23         -0.673393        2.000000        0.00000000        0.00000000        0.00000000
      24         -0.672924        2.000000        0.00000520        0.00000514        0.00000004
      25         -0.672289        2.000000        0.00000000        0.00000000        0.00000000
      26         -0.672227        2.000000        0.00000118        0.00000048        0.00000001
      27         -0.671275        2.000000        0.00001608        0.00000711        0.00000007
      28         -0.670770        2.000000        0.00000001        0.00000001        0.00000000
      29         -0.670400        2.000000        0.00000002        0.00000001        0.00000000
      30         -0.669922        2.000000        0.00000001        0.00000001        0.00000000
      31         -0.669606        2.000000        0.00129379        0.00047427        0.00001380
      32         -0.668947        2.000000        0.00001659        0.00000951        0.00000026
      33         -0.668931        2.000000        0.00005944        0.00003023        0.00000084
      34         -0.668431        2.000000        0.00000122        0.00000054        0.00000001
      35         -0.668008        2.000000        0.00000027        0.00000033        0.00000001
      36         -0.667083        2.000000        0.00000006        0.00000007        0.00000000
      37         -0.666996        2.000000        0.00019106        0.00004317        0.00000039
      38         -0.666939        2.000000        0.00000000        0.00000001        0.00000000
      39         -0.666646        2.000000        0.00000001        0.00000003        0.00000000
      40         -0.666363        2.000000        0.00000014        0.00000002        0.00000000
      41         -0.666281        2.000000        0.00001228        0.00000319        0.00000007
      42         -0.666129        2.000000        0.00000163        0.00000046        0.00000001
      43         -0.665867        2.000000        0.00000044        0.00000009        0.00000000
      44         -0.664404        2.000000        0.00009353        0.00006220        0.00000118
      45         -0.664061        2.000000        0.00004940        0.00000810        0.00000022
      46         -0.663948        2.000000        0.00334900        0.00060157        0.00001614
      47         -0.663550        2.000000        0.00003375        0.00000572        0.00000014
      48         -0.662943        2.000000        0.00140019        0.00024407        0.00000634
      49         -0.662627        2.000000        0.00000001        0.00000000        0.00000000
      50         -0.661965        2.000000        0.00002203        0.00000197        0.00000008
      51         -0.661528        2.000000        0.04654916        0.00864065        0.00022498
      52         -0.660900        2.000000        0.00219624        0.00045447        0.00001268
      53         -0.660166        2.000000        0.00000005        0.00000002        0.00000000
      54         -0.659683        2.000000        0.00148679        0.00041993        0.00001355
      55         -0.658835        2.000000        0.00000122        0.00000096        0.00000000
      56         -0.658814        2.000000        0.00153662        0.00018036        0.00000640
      57         -0.658691        2.000000        0.00756134        0.00240006        0.00007960
      58         -0.658084        2.000000        0.00037823        0.00008336        0.00000068
      59         -0.658073        2.000000        0.00113748        0.00025525        0.00000187
      60         -0.657975        2.000000        0.00000504        0.00000110        0.00000001
      61         -0.657678        2.000000        0.00000090        0.00000071        0.00000001
      62         -0.657592        2.000000        0.00000065        0.00000076        0.00000001
      63         -0.657226        2.000000        0.00010485        0.00004267        0.00000114
      64         -0.657087        2.000000        0.00000010        0.00000122        0.00000008
      65         -0.656742        2.000000        0.00000080        0.00001352        0.00000077
      66         -0.656449        2.000000        0.00002622        0.00001829        0.00000020
      67         -0.656215        2.000000        0.00009056        0.00008225        0.00000062
      68         -0.655700        2.000000        0.00019923        0.00020738        0.00000091
      69         -0.655174        2.000000        0.00394202        0.00046760        0.00001288
      70         -0.654827        2.000000        0.00000366        0.00000092        0.00000001
      71         -0.654660        2.000000        0.00004669        0.00040850        0.00000634
      72         -0.654406        2.000000        0.00000085        0.00000268        0.00000003
      73         -0.654250        2.000000        0.00000005        0.00000027        0.00000001
      74         -0.653619        2.000000        0.00044156        0.00006601        0.00000148
      75         -0.653105        2.000000        0.00014780        0.00002302        0.00000020
      76         -0.652904        2.000000        0.00247702        0.00072557        0.00000231
      77         -0.652612        2.000000        0.00009043        0.00003677        0.00000021
      78         -0.652411        2.000000        0.00000012        0.00000028        0.00000000
      79         -0.652213        2.000000        0.00211533        0.00138409        0.00000966
      80         -0.652083        2.000000        0.00145728        0.00054630        0.00000369
      81         -0.651807        2.000000        0.00073095        0.00046243        0.00000180
      82         -0.651706        2.000000        0.00078161        0.00014215        0.00000408
      83         -0.651237        2.000000        0.00037671        0.00020160        0.00000435
      84         -0.651053        2.000000        0.00001497        0.00003377        0.00000054
      85         -0.650411        2.000000        0.00142688        0.00055404        0.00001066
      86         -0.650326        2.000000        0.00060078        0.00032637        0.00000783
      87         -0.650219        2.000000        0.00018528        0.00008505        0.00000193
      88         -0.650130        2.000000        0.00136389        0.00063872        0.00001538
      89         -0.649849        2.000000        0.00187108        0.00084543        0.00001786
      90         -0.649510        2.000000        0.00003685        0.00002175        0.00000060
      91         -0.648737        2.000000        0.00008542        0.00002896        0.00000023
      92         -0.648608        2.000000        0.00001027        0.00004539        0.00000031
      93         -0.648509        2.000000        0.00001048        0.00000826        0.00000005
      94         -0.648091        2.000000        0.00556569        0.00188346        0.00001481
      95         -0.647956        2.000000        0.00004600        0.00007249        0.00000109
      96         -0.647875        2.000000        0.00011674        0.00003706        0.00000027
      97         -0.647628        2.000000        0.00007286        0.00002214        0.00000017
      98         -0.647248        2.000000        0.00000744        0.00000268        0.00000001
      99         -0.646997        2.000000        0.01058083        0.00411845        0.00003877
     100         -0.646893        2.000000        0.00463485        0.00159068        0.00001394
     101         -0.646794        2.000000        0.00001047        0.00002455        0.00000029
     102         -0.645843        2.000000        0.00248379        0.00077517        0.00001288
     103         -0.645519        2.000000        0.00037198        0.00011375        0.00000222
     104         -0.645232        2.000000        0.00019761        0.00009553        0.00000518
     105         -0.644964        2.000000        0.00011055        0.00002820        0.00000030
     106         -0.644451        2.000000        0.00739227        0.00184461        0.00001292
     107         -0.644170        2.000000        0.00031454        0.00010449        0.00000171
     108         -0.643891        2.000000        0.00086632        0.00059712        0.00000871
     109         -0.643862        2.000000        0.00111713        0.00033246        0.00000705
     110         -0.643478        2.000000        0.00054227        0.00028167        0.00000109
     111         -0.643325        2.000000        0.00269074        0.00144118        0.00000450
     112         -0.642934        2.000000        0.00860148        0.00347687        0.00003146
     113         -0.642899        2.000000        0.00001361        0.00000510        0.00000003
     114         -0.642460        2.000000        0.00000058        0.00000053        0.00000002
     115         -0.642175        2.000000        0.00004256        0.00013341        0.00000342
     116         -0.642120        2.000000        0.00000452        0.00000753        0.00000010
     117         -0.641851        2.000000        0.00021325        0.00019252        0.00000205
     118         -0.641683        2.000000        0.00002571        0.00002097        0.00000024
     119         -0.641305        2.000000        0.00092161        0.00023775        0.00000205
     120         -0.641072        2.000000        0.00005087        0.00001464        0.00000046
     121         -0.640960        2.000000        0.00096759        0.00038149        0.00000092
     122         -0.640793        2.000000        0.00098032        0.00042111        0.00000371
     123         -0.640578        2.000000        0.00014661        0.00004347        0.00000045
     124         -0.640464        2.000000        0.00007211        0.00001789        0.00000131
     125         -0.640169        2.000000        0.00001728        0.00005504        0.00000051
     126         -0.639736        2.000000        0.00022209        0.00012518        0.00000621
     127         -0.639499        2.000000        0.00671694        0.00171950        0.00001061
     128         -0.639154        2.000000        0.00469582        0.00132006        0.00001212
     129         -0.639060        2.000000        0.00077243        0.00026775        0.00000828
     130         -0.638976        2.000000        0.00423096        0.00101428        0.00000797
     131         -0.638593        2.000000        0.00297532        0.00075004        0.00000737
     132         -0.638261        2.000000        0.00003384        0.00000629        0.00000012
     133         -0.638059        2.000000        0.00011049        0.00006087        0.00000043
     134         -0.637912        2.000000        0.00001065        0.00004454        0.00000041
     135         -0.637762        2.000000        0.00002181        0.00000661        0.00000021
     136         -0.637584        2.000000        0.00504315        0.00086240        0.00003383
     137         -0.636804        2.000000        0.00000305        0.00000086        0.00000005
     138         -0.636640        2.000000        0.00566029        0.00139394        0.00001532
     139         -0.636429        2.000000        0.00021520        0.00007480        0.00000124
     140         -0.635515        2.000000        0.03773317        0.00861786        0.00010373
     141         -0.634989        2.000000        0.00998676        0.00243259        0.00002620
     142         -0.634462        2.000000        0.00004490        0.00003498        0.00000051
     143         -0.634132        2.000000        0.00146813        0.00045831        0.00000265
     144         -0.633763        2.000000        0.03762638        0.01132086        0.00006113
     145         -0.633531        2.000000        0.00000116        0.00000127        0.00000000
     146         -0.632585        2.000000        0.00051610        0.00012458        0.00000180
     147         -0.632333        2.000000        0.00219412        0.00046893        0.00000899
     148         -0.632031        2.000000        0.01024475        0.00338251        0.00001500
     149         -0.631841        2.000000        0.00484129        0.00123520        0.00001256
     150         -0.631318        2.000000        0.00011426        0.00006162        0.00000091
     151         -0.630640        2.000000        0.00170015        0.00046784        0.00000672
     152         -0.630519        2.000000        0.00000183        0.00000467        0.00000004
     153         -0.630490        2.000000        0.00001508        0.00000695        0.00000008
     154         -0.629959        2.000000        0.29970335        0.07445442        0.00077541
     155         -0.629452        2.000000        0.09656895        0.02306074        0.00028059
     156         -0.629210        2.000000        0.00194763        0.00048408        0.00000552
     157         -0.628856        2.000000        0.00157472        0.00046933        0.00000319
     158         -0.628516        2.000000        0.00204034        0.00052957        0.00000497
     159         -0.628511        2.000000        0.01508107        0.00409141        0.00003688
     160         -0.628382        2.000000        0.00479189        0.00124925        0.00001245
     161         -0.628242        2.000000        0.00185654        0.00070597        0.00000275
     162         -0.628026        2.000000        0.00016391        0.00008329        0.00000115
     163         -0.627712        2.000000        0.00902630        0.00242418        0.00002326
     164         -0.627438        2.000000        0.01029456        0.00289371        0.00002475
     165         -0.627281        2.000000        0.00802392        0.00220702        0.00002024
     166         -0.626983        2.000000        0.03918702        0.01068417        0.00009986
     167         -0.626804        2.000000        0.00002428        0.00014904        0.00000195
     168         -0.626588        2.000000        0.00119035        0.00036230        0.00000239
     169         -0.626019        2.000000        0.00137245        0.00044839        0.00000364
     170         -0.625843        2.000000        0.00001357        0.00000444        0.00000003
     171         -0.625019        2.000000        0.00052392        0.00015352        0.00000123
     172         -0.624831        2.000000        0.00061666        0.00015868        0.00000205
     173         -0.624166        2.000000        0.00023109        0.00020478        0.00000033
     174         -0.623906        2.000000        0.00000064        0.00000275        0.00000001
     175         -0.623799        2.000000        0.00000641        0.00002159        0.00000023
     176         -0.623716        2.000000        0.00000319        0.00000128        0.00000000
     177         -0.623382        2.000000        0.00016275        0.00007798        0.00000018
     178         -0.623067        2.000000        0.00001680        0.00000688        0.00000003
     179         -0.622801        2.000000        0.00414047        0.00173517        0.00000602
     180         -0.622617        2.000000        0.00132617        0.00058122        0.00000191
     181         -0.622499        2.000000        0.00004767        0.00002599        0.00000006
     182         -0.621672        2.000000        0.00092406        0.00036272        0.00000173
     183         -0.621151        2.000000        0.00091335        0.00036134        0.00000181
     184         -0.620781        2.000000        0.00179048        0.00072084        0.00000358
     185         -0.620579        2.000000        0.00181664        0.00081922        0.00000300
     186         -0.619930        2.000000        0.00023274        0.00010339        0.00000039
     187         -0.618694        2.000000        0.00000236        0.00000081        0.00000001
     188         -0.618461        2.000000        0.00088567        0.00021485        0.00000366
     189         -0.618211        2.000000        0.00003054        0.00000950        0.00000008
     190         -0.617957        2.000000        0.00124519        0.00043814        0.00000283
     191         -0.617770        2.000000        0.00004813        0.00003840        0.00000116
     192         -0.617636        2.000000        0.00231928        0.00097490        0.00000400
     193         -0.617200        2.000000        0.00012022        0.00003417        0.00000055
     194         -0.616810        2.000000        0.00003319        0.00013511        0.00000202
     195         -0.615618        2.000000        0.00043213        0.00014272        0.00000156
     196         -0.615377        2.000000        0.00002992        0.00001365        0.00000004
     197         -0.615228        2.000000        0.00209300        0.00080388        0.00000420
     198         -0.614941        2.000000        0.00000083        0.00000043        0.00000000
     199         -0.613862        2.000000        0.00000122        0.00000588        0.00000007
     200         -0.613167        2.000000        0.00013177        0.00005051        0.00000076
     201         -0.612937        2.000000        0.00000025        0.00000013        0.00000000
     202         -0.612465        2.000000        0.00018296        0.00008502        0.00000023
     203         -0.611371        2.000000        0.00008810        0.00003056        0.00000035
     204         -0.611273        2.000000        0.00018143        0.00007611        0.00000128
     205         -0.610903        2.000000        0.00004057        0.00003186        0.00000006
     206         -0.609912        2.000000        0.00000484        0.00000206        0.00000001
     207         -0.609442        2.000000        0.00000018        0.00000031        0.00000000
     208         -0.609149        2.000000        0.00003289        0.00001079        0.00000018
     209         -0.608882        2.000000        0.00011453        0.00003087        0.00000083
     210         -0.608562        2.000000        0.00331044        0.00111748        0.00004830
     211         -0.608012        2.000000        0.00000383        0.00000177        0.00000007
     212         -0.607014        2.000000        0.00002126        0.00001310        0.00000002
     213         -0.606300        2.000000        0.00000188        0.00000175        0.00000001
     214         -0.605948        2.000000        0.00000002        0.00000010        0.00000000
     215         -0.605403        2.000000        0.00000001        0.00000004        0.00000000
     216         -0.604664        2.000000        0.00000013        0.00000100        0.00000001
     217         -0.604080        2.000000        0.00000289        0.00000293        0.00000002
     218         -0.603538        2.000000        0.00000080        0.00000056        0.00000003
     219         -0.603145        2.000000        0.00000176        0.00000089        0.00000000
     220         -0.602213        2.000000        0.00000027        0.00000063        0.00000002
     221         -0.601871        2.000000        0.00000171        0.00000072        0.00000003
     222         -0.600521        2.000000        0.00000002        0.00000004        0.00000000
     223         -0.599848        2.000000        0.00000327        0.00000424        0.00000001
     224         -0.598111        2.000000        0.00000603        0.00000560        0.00000002
     225         -0.597286        2.000000        0.00000069        0.00000042        0.00000000
     226         -0.597121        2.000000        0.00000105        0.00000190        0.00000001
     227         -0.595585        2.000000        0.00000341        0.00000195        0.00000002
     228         -0.591103        2.000000        0.00000002        0.00000001        0.00000000
     229         -0.582585        2.000000        0.00000001        0.00000001        0.00000000
     230         -0.576283        2.000000        0.00000000        0.00000001        0.00000000
     231         -0.258156        2.000000        0.00000000        0.00000000        0.00000000
     232         -0.253473        2.000000        0.00000000        0.00000000        0.00000000
     233         -0.246233        2.000000        0.00000000        0.00000000        0.00000000
     234         -0.244651        2.000000        0.00000000        0.00000000        0.00000000
     235         -0.243092        2.000000        0.00000000        0.00000000        0.00000000
     236         -0.242544        2.000000        0.00009284        0.00021516        0.00000414
     237         -0.241048        2.000000        0.00000000        0.00000000        0.00000000
     238         -0.240546        2.000000        0.00000000        0.00000000        0.00000000
     239         -0.237982        2.000000        0.00000000        0.00000000        0.00000000
     240         -0.237798        2.000000        0.00000025        0.00000065        0.00000001
     241         -0.236566        2.000000        0.00000006        0.00000011        0.00000000
     242         -0.235920        2.000000        0.00000003        0.00000007        0.00000000
     243         -0.233145        2.000000        0.00000191        0.00000574        0.00000006
     244         -0.232785        2.000000        0.00000000        0.00000000        0.00000000
     245         -0.232224        2.000000        0.00000000        0.00000000        0.00000000
     246         -0.232174        2.000000        0.00010090        0.00027540        0.00000432
     247         -0.232015        2.000000        0.00003702        0.00009811        0.00000152
     248         -0.230744        2.000000        0.00024446        0.00063443        0.00001002
     249         -0.230697        2.000000        0.00000075        0.00000193        0.00000003
     250         -0.229959        2.000000        0.00000310        0.00001644        0.00000036
     251         -0.229741        2.000000        0.00000002        0.00000006        0.00000000
     252         -0.228898        2.000000        0.00000003        0.00000008        0.00000000
     253         -0.227939        2.000000        0.00000008        0.00000021        0.00000000
     254         -0.227542        2.000000        0.00000002        0.00000005        0.00000000
     255         -0.227010        2.000000        0.00000006        0.00000015        0.00000000
     256         -0.226860        2.000000        0.00233066        0.00589351        0.00009909
     257         -0.226780        2.000000        0.00000023        0.00000059        0.00000001
     258         -0.226656        2.000000        0.00000063        0.00000160        0.00000003
     259         -0.226503        2.000000        0.21383480        0.53742222        0.00917478
     260         -0.226036        2.000000        0.00000024        0.00000059        0.00000001
     261         -0.225667        2.000000        0.00235431        0.00587193        0.00010297
     262         -0.225511        2.000000        0.00065681        0.00163464        0.00002947
     263         -0.224716        2.000000        0.00000008        0.00000019        0.00000000
     264         -0.224218        2.000000        0.00000021        0.00000053        0.00000001
     265         -0.223677        2.000000        0.00002587        0.00007332        0.00000153
     266         -0.223438        2.000000        0.00000166        0.00000415        0.00000007
     267         -0.223292        2.000000        0.00002877        0.00007237        0.00000121
     268         -0.223025        2.000000        0.00000017        0.00000042        0.00000001
     269         -0.222436        2.000000        0.00000004        0.00000011        0.00000000
     270         -0.222159        2.000000        0.00006303        0.00015554        0.00000291
     271         -0.221905        2.000000        0.00000000        0.00000001        0.00000000
     272         -0.221185        2.000000        0.00009839        0.00025610        0.00000516
     273         -0.220659        2.000000        0.00000000        0.00000002        0.00000000
     274         -0.219665        2.000000        0.00000020        0.00000095        0.00000002
     275         -0.219630        2.000000        0.00000256        0.00001265        0.00000031
     276         -0.218916        2.000000        0.00000055        0.00000186        0.00000005
     277         -0.218551        2.000000        0.00012779        0.00043973        0.00001102
     278         -0.218398        2.000000        0.00007717        0.00028267        0.00000719
     279         -0.218139        2.000000        0.00505927        0.01459499        0.00034431
     280         -0.217698        2.000000        0.00000169        0.00000571        0.00000016
     281         -0.217580        2.000000        0.00022161        0.00065612        0.00001425
     282         -0.217435        2.000000        0.00001988        0.00006141        0.00000140
     283         -0.216483        2.000000        0.00003291        0.00011728        0.00000281
     284         -0.216363        2.000000        0.00232993        0.00870511        0.00020392
     285         -0.216254        2.000000        0.00001152        0.00004758        0.00000108
     286         -0.215958        2.000000        0.00875912        0.02515155        0.00062622
     287         -0.215645        2.000000        0.00393724        0.01170635        0.00029574
     288         -0.215217        2.000000        0.00000117        0.00000295        0.00000005
     289         -0.214936        2.000000        0.00000000        0.00000001        0.00000000
     290         -0.214221        2.000000        0.00000082        0.00000238        0.00000006
     291         -0.213816        2.000000        0.00000022        0.00000057        0.00000001
     292         -0.213592        2.000000        0.00000100        0.00000606        0.00000011
     293         -0.213468        2.000000        0.00000144        0.00000574        0.00000016
     294         -0.213241        2.000000        0.00000005        0.00000034        0.00000001
     295         -0.213184        2.000000        0.00003908        0.00020946        0.00000565
     296         -0.212817        2.000000        0.00025145        0.00071197        0.00001792
     297         -0.212583        2.000000        0.00000062        0.00000155        0.00000004
     298         -0.212273        2.000000        0.00002187        0.00010939        0.00000225
     299         -0.211896        2.000000        0.00000021        0.00000075        0.00000002
     300         -0.211391        2.000000        0.00001105        0.00003047        0.00000047
     301         -0.211339        2.000000        0.00000592        0.00001942        0.00000027
     302         -0.211269        2.000000        0.00000069        0.00000364        0.00000005
     303         -0.211046        2.000000        0.00000426        0.00002863        0.00000048
     304         -0.210412        2.000000        0.00001925        0.00007328        0.00000167
     305         -0.210309        2.000000        0.00008549        0.00031167        0.00000719
     306         -0.210188        2.000000        0.00007811        0.00035126        0.00000832
     307         -0.210166        2.000000        0.00001808        0.00011712        0.00000252