# Projected DOS for list 2 of 3 atoms, at iteration step i = 0, E(Fermi) =     0.101540 a.u.
#     MO Eigenvalue [a.u.]      Occupation                 s                 p                 d
       1         -0.708367        2.000000        0.00000000        0.00000000        0.00000000
       2         -0.696979        2.000000        0.00000000        0.00000000        0.00000000
       3         -0.695301        2.000000        0.00000000        0.00000000        0.00000000
       4         -0.694902        2.000000        0.00000035        0.00000013        0.00000000
       5         -0.690081        2.000000        0.00052103        0.00041511        0.00000163
       6         -0.686805        2.000000        0.00000000        0.00000000        0.00000000
       7         -0.686571        2.000000        0.00000000        0.00000000        0.00000000
       8         -0.685003        2.000000        0.00000000        0.00000000        0.00000000
       9         -0.684036        2.000000        0.00000000        0.00000000        0.00000000
      10         -0.683920        2.000000        0.00006794        0.00010206        0.00000018
      11         -0.681735        2.000000        0.00000000        0.00000000        0.00000000
      12         -0.679408        2.000000        0.00000000        0.00000000        0.00000000
      13         -0.678932        2.000000        0.00011662        0.00009074        0.00000076
      14         -0.678381        2.000000        0.00000000        0.00000000        0.00000000
      15         -0.677963        2.000000        0.00000000        0.00000000        0.00000000
      16         -0.677540        2.000000        0.00000000        0.00000000        0.00000000
      17         -0.677381        2.000000        0.00026765        0.00022093        0.00000190
      18         -0.677246        2.000000        0.00000000        0.00000000        0.00000000
      19         -0.675827        2.000000        0.00000000        0.00000000        0.00000000
      20         -0.675724        2.000000        0.00001223        0.00014306        0.00000038
      21         -0.674932        2.000000        0.00010082        0.00004046        0.00000048
      22         -0.674380        2.000000        0.00000000        0.00000000        0.00000000
      23         -0.673393        2.000000        0.00000000        0.00000000        0.00000000
      24         -0.672924        2.000000        0.00130481        0.00033452        0.00000502
      25         -0.672289        2.000000        0.00000000        0.00000000        0.00000000
      26         -0.672227        2.000000        0.00000000        0.00000002        0.00000000
      27         -0.671275        2.000000        0.00056705        0.00043081        0.00000332
      28         -0.670770        2.000000        0.00000000        0.00000000        0.00000000
      29         -0.670400        2.000000        0.00000000        0.00000000        0.00000000
      30         -0.669922        2.000000        0.00000000        0.00000000        0.00000000
      31         -0.669606        2.000000        0.00003199        0.00001841        0.00000015
      32         -0.668947        2.000000        0.00002947        0.00006824        0.00000079
      33         -0.668931        2.000000        0.00004236        0.00011841        0.00000134
      34         -0.668431        2.000000        0.00000011        0.00000010        0.00000000
      35         -0.668008        2.000000        0.00000045        0.00000038        0.00000000
      36         -0.667083        2.000000        0.00000015        0.00000011        0.00000000
      37         -0.666996        2.000000        0.00017031        0.00040240        0.00000107
      38         -0.666939        2.000000        0.00000007        0.00000006        0.00000000
      39         -0.666646        2.000000        0.00000206        0.00000093        0.00000001
      40         -0.666363        2.000000        0.00000094        0.00000043        0.00000000
      41         -0.666281        2.000000        0.00005138        0.00010586        0.00000238
      42         -0.666129        2.000000        0.00000016        0.00000017        0.00000000
      43         -0.665867        2.000000        0.00000005        0.00000002        0.00000000
      44         -0.664404        2.000000        0.00074813        0.00075065        0.00000381
      45         -0.664061        2.000000        0.00000423        0.00000153        0.00000001
      46         -0.663948        2.000000        0.00010093        0.00001186        0.00000017
      47         -0.663550        2.000000        0.00000155        0.00000029        0.00000000
      48         -0.662943        2.000000        0.00117114        0.00076750        0.00000758
      49         -0.662627        2.000000        0.00000000        0.00000000        0.00000000
      50         -0.661965        2.000000        0.00000008        0.00000008        0.00000000
      51         -0.661528        2.000000        0.00025992        0.00018753        0.00000044
      52         -0.660900        2.000000        0.00001290        0.00003480        0.00000025
      53         -0.660166        2.000000        0.00000000        0.00000000        0.00000000
      54         -0.659683        2.000000        0.00004858        0.00013108        0.00000095
      55         -0.658835        2.000000        0.00000057        0.00000036        0.00000000
      56         -0.658814        2.000000        0.00129478        0.00029118        0.00000498
      57         -0.658691        2.000000        0.00564125        0.00097043        0.00001176
      58         -0.658084        2.000000        0.00046565        0.00009396        0.00000087
      59         -0.658073        2.000000        0.00138474        0.00028151        0.00000261
      60         -0.657975        2.000000        0.00000286        0.00000070        0.00000001
      61         -0.657678        2.000000        0.00000059        0.00000024        0.00000000
      62         -0.657592        2.000000        0.00000217        0.00000044        0.00000000
      63         -0.657226        2.000000        0.00014006        0.00016025        0.00000102
      64         -0.657087        2.000000        0.00000360        0.00000069        0.00000001
      65         -0.656742        2.000000        0.00003873        0.00000789        0.00000011
      66         -0.656449        2.000000        0.00003778        0.00001105        0.00000011
      67         -0.656215        2.000000        0.00013451        0.00004295        0.00000039
      68         -0.655700        2.000000        0.00020201        0.00008239        0.00000066
      69         -0.655174        2.000000        0.00006966        0.00036389        0.00000166
      70         -0.654827        2.000000        0.00000875        0.00000223        0.00000003
      71         -0.654660        2.000000        0.01167901        0.00289410        0.00003856
      72         -0.654406        2.000000        0.00003794        0.00000882        0.00000013
      73         -0.654250        2.000000        0.00001244        0.00000242        0.00000004
      74         -0.653619        2.000000        0.00381606        0.00132375        0.00002404
      75         -0.653105        2.000000        0.00072398        0.00014619        0.00000208
      76         -0.652904        2.000000        0.00318106        0.00038398        0.00000843
      77         -0.652612        2.000000        0.00002629        0.00000387        0.00000007
      78         -0.652411        2.000000        0.00000051        0.00000021        0.00000000
      79         -0.652213        2.000000        0.00093090        0.00028734        0.00000220
      80         -0.652083        2.000000        0.00019637        0.00003699        0.00000027
      81         -0.651807        2.000000        0.00049587        0.00033961        0.00000211
      82         -0.651706        2.000000        0.00047280        0.00126447        0.00000764
      83         -0.651237        2.000000        0.00012619        0.00003996        0.00000052
      84         -0.651053        2.000000        0.00000903        0.00002554        0.00000033
      85         -0.650411        2.000000        0.00384497        0.00095126        0.00000905
      86         -0.650326        2.000000        0.00003104        0.00005353        0.00000061
      87         -0.650219        2.000000        0.00033522        0.00008536        0.00000078
      88         -0.650130        2.000000        0.00189829        0.00051151        0.00000477
      89         -0.649849        2.000000        0.00530602        0.00126472        0.00001126
      90         -0.649510        2.000000        0.00036205        0.00008864        0.00000078
      91         -0.648737        2.000000        0.00101753        0.00022645        0.00000159
      92         -0.648608        2.000000        0.00122278        0.00086825        0.00000907
      93         -0.648509        2.000000        0.00027894        0.00007233        0.00000066
      94         -0.648091        2.000000        0.01815261        0.00471533        0.00004040
      95         -0.647956        2.000000        0.00059292        0.00047874        0.00000531
      96         -0.647875        2.000000        0.00015148        0.00003657        0.00000029
      97         -0.647628        2.000000        0.00005341        0.00001421        0.00000011
      98         -0.647248        2.000000        0.00002279        0.00000466        0.00000004
      99         -0.646997        2.000000        0.00203821        0.00040438        0.00000352
     100         -0.646893        2.000000        0.00197060        0.00050400        0.00000446
     101         -0.646794        2.000000        0.00027656        0.00005086        0.00000047
     102         -0.645843        2.000000        0.00248522        0.00040423        0.00000419
     103         -0.645519        2.000000        0.00024135        0.00004204        0.00000035
     104         -0.645232        2.000000        0.00079246        0.00016813        0.00000108
     105         -0.644964        2.000000        0.00000022        0.00000034        0.00000000
     106         -0.644451        2.000000        0.00012496        0.00004422        0.00000045
     107         -0.644170        2.000000        0.00013250        0.00002506        0.00000022
     108         -0.643891        2.000000        0.00062616        0.00014056        0.00000170
     109         -0.643862        2.000000        0.00089957        0.00016287        0.00000195
     110         -0.643478        2.000000        0.00083105        0.00014899        0.00000155
     111         -0.643325        2.000000        0.00664637        0.00116803        0.00001328
     112         -0.642934        2.000000        0.00013224        0.00021319        0.00000430
     113         -0.642899        2.000000        0.00000136        0.00000045        0.00000001
     114         -0.642460        2.000000        0.00003761        0.00000700        0.00000007
     115         -0.642175        2.000000        0.09327249        0.01788211        0.00017766
     116         -0.642120        2.000000        0.00092240        0.00016821        0.00000191
     117         -0.641851        2.000000        0.00028237        0.00016248        0.00000123
     118         -0.641683        2.000000        0.00243922        0.00048302        0.00000472
     119         -0.641305        2.000000        0.01121440        0.00202936        0.00002395
     120         -0.641072        2.000000        0.00002679        0.00003533        0.00000016
     121         -0.640960        2.000000        0.02651115        0.00481717        0.00006007
     122         -0.640793        2.000000        0.00283918        0.00055462        0.00000483
     123         -0.640578        2.000000        0.00071890        0.00017972        0.00000140
     124         -0.640464        2.000000        0.00005430        0.00005234        0.00000020
     125         -0.640169        2.000000        0.01811845        0.00453567        0.00003024
     126         -0.639736        2.000000        0.00032229        0.00048475        0.00000315
     127         -0.639499        2.000000        0.00010398        0.00025169        0.00000276
     128         -0.639154        2.000000        0.00431303        0.00083819        0.00001165
     129         -0.639060        2.000000        0.02420888        0.00494446        0.00007636
     130         -0.638976        2.000000        0.00275338        0.00059846        0.00000873
     131         -0.638593        2.000000        0.00001607        0.00005860        0.00000120
     132         -0.638261        2.000000        0.00000263        0.00000642        0.00000012
     133         -0.638059        2.000000        0.00000337        0.00000497        0.00000002
     134         -0.637912        2.000000        0.00000454        0.00006005        0.00000056
     135         -0.637762        2.000000        0.00000601        0.00001462        0.00000011
     136         -0.637584        2.000000        0.00364386        0.00464675        0.00002950
     137         -0.636804        2.000000        0.00001149        0.00000362        0.00000001
     138         -0.636640        2.000000        0.00153387        0.00037877        0.00000193
     139         -0.636429        2.000000        0.00095515        0.00068892        0.00000280
     140         -0.635515        2.000000        0.00131212        0.00081675        0.00000240
     141         -0.634989        2.000000        0.00309246        0.00077099        0.00000443
     142         -0.634462        2.000000        0.00027620        0.00007468        0.00000048
     143         -0.634132        2.000000        0.00128990        0.00030429        0.00000218
     144         -0.633763        2.000000        0.01645956        0.00440399        0.00002513
     145         -0.633531        2.000000        0.00000883        0.00000222        0.00000001
     146         -0.632585        2.000000        0.00101397        0.00027233        0.00000166
     147         -0.632333        2.000000        0.00561982        0.00160131        0.00000841
     148         -0.632031        2.000000        0.22597545        0.06713910        0.00033277
     149         -0.631841        2.000000        0.00031304        0.00011182        0.00000038
     150         -0.631318        2.000000        0.00098336        0.00031783        0.00000146
     151         -0.630640        2.000000        0.00127893        0.00044921        0.00000164
     152         -0.630519        2.000000        0.00007366        0.00002711        0.00000008
     153         -0.630490        2.000000        0.00000235        0.00000106        0.00000000
     154         -0.629959        2.000000        0.00086558        0.00021556        0.00000259
     155         -0.629452        2.000000        0.00020879        0.00008925        0.00000144
     156         -0.629210        2.000000        0.00000068        0.00000082        0.00000001
     157         -0.628856        2.000000        0.00221983        0.00068119        0.00001617
     158         -0.628516        2.000000        0.00088328        0.00022101        0.00000201
     159         -0.628511        2.000000        0.00283131        0.00077815        0.00000541
     160         -0.628382        2.000000        0.00264163        0.00078134        0.00000449
     161         -0.628242        2.000000        0.00309579        0.00083466        0.00000670
     162         -0.628026        2.000000        0.00058727        0.00015028        0.00000166
     163         -0.627712        2.000000        0.00000329        0.00000229        0.00000006
     164         -0.627438        2.000000        0.00000086        0.00000583        0.00000004
     165         -0.627281        2.000000        0.00000925        0.00000315        0.00000006
     166         -0.626983        2.000000        0.00029759        0.00010413        0.00000053
     167         -0.626804        2.000000        0.00681073        0.00172321        0.00001992
     168         -0.626588        2.000000        0.00000323        0.00000332        0.00000001
     169         -0.626019        2.000000        0.21958822        0.05880994        0.00058544
     170         -0.625843        2.000000        0.00007299        0.00002077        0.00000017
     171         -0.625019        2.000000        0.00005763        0.00002113        0.00000011
     172         -0.624831        2.000000        0.00007795        0.00004175        0.00000016
     173         -0.624166        2.000000        0.00021669        0.00005531        0.00000083
     174         -0.623906        2.000000        0.00000391        0.00000099        0.00000001
     175         -0.623799        2.000000        0.00010820        0.00003619        0.00000024
     176         -0.623716        2.000000        0.00002682        0.00000760        0.00000007
     177         -0.623382        2.000000        0.00028592        0.00008939        0.00000062
     178         -0.623067        2.000000        0.00000057        0.00000018        0.00000000
     179         -0.622801        2.000000        0.00014217        0.00004568        0.00000030
     180         -0.622617        2.000000        0.00022526        0.00009504        0.00000042
     181         -0.622499        2.000000        0.00003150        0.00001331        0.00000006
     182         -0.621672        2.000000        0.00000014        0.00000031        0.00000000
     183         -0.621151        2.000000        0.00000509        0.00000188        0.00000001
     184         -0.620781        2.000000        0.00002364        0.00000798        0.00000005
     185         -0.620579        2.000000        0.00004502        0.00001511        0.00000014
     186         -0.619930        2.000000        0.00002408        0.00000736        0.00000007
     187         -0.618694        2.000000        0.00000055        0.00000015        0.00000000
     188         -0.618461        2.000000        0.00065009        0.00018478        0.00000204
     189         -0.618211        2.000000        0.00000524        0.00000143        0.00000002
     190         -0.617957        2.000000        0.00008990        0.00002375        0.00000036
     191         -0.617770        2.000000        0.00010602        0.00003039        0.00000037
     192         -0.617636        2.000000        0.00004859        0.00001260        0.00000025
     193         -0.617200        2.000000        0.00000481        0.00000165        0.00000001
     194         -0.616810        2.000000        0.00000094        0.00000212        0.00000007
     195         -0.615618        2.000000        0.00048014        0.00013330        0.00000428
     196         -0.615377        2.000000        0.00000606        0.00000176        0.00000006
     197         -0.615228        2.000000        0.00049283        0.00013729        0.00000427
     198         -0.614941        2.000000        0.00000007        0.00000002        0.00000000
     199         -0.613862        2.000000        0.00000018        0.00000070        0.00000005
     200         -0.613167        2.000000        0.00000013        0.00000053        0.00000001
     201         -0.612937        2.000000        0.00000000        0.00000000        0.00000000
     202         -0.612465        2.000000        0.00000001        0.00000006        0.00000000
     203         -0.611371        2.000000        0.00006543        0.00001815        0.00000066
     204         -0.611273        2.000000        0.00064199        0.00018117        0.00000655
     205         -0.610903        2.000000        0.00002256        0.00000646        0.00000023
     206         -0.609912        2.000000        0.00000004        0.00000004        0.00000000
     207         -0.609442        2.000000        0.00000002        0.00000000        0.00000000
     208         -0.609149        2.000000        0.00000017        0.00000008        0.00000000
     209         -0.608882        2.000000        0.00000421        0.00000140        0.00000004
     210         -0.608562        2.000000        0.00008265        0.00005163        0.00000030
     211         -0.608012        2.000000        0.00000017        0.00000007        0.00000000
     212         -0.607014        2.000000        0.00000007        0.00000002        0.00000000
     213         -0.606300        2.000000        0.00000003        0.00000001        0.00000000
     214         -0.605948        2.000000        0.00000000        0.00000000        0.00000000
     215         -0.605403        2.000000        0.00000000        0.00000000        0.00000000
     216         -0.604664        2.000000        0.00000002        0.00000002        0.00000000
     217         -0.604080        2.000000        0.00000001        0.00000002        0.00000000
     218         -0.603538        2.000000        0.00000002        0.00000003        0.00000000
     219         -0.603145        2.000000        0.00000001        0.00000001        0.00000000
     220         -0.602213        2.000000        0.00000003        0.00000004        0.00000000
     221         -0.601871        2.000000        0.00000006        0.00000005        0.00000000
     222         -0.600521        2.000000        0.00000000        0.00000000        0.00000000
     223         -0.599848        2.000000        0.00000013        0.00000015        0.00000001
     224         -0.598111        2.000000        0.00000000        0.00000000        0.00000000
     225         -0.597286        2.000000        0.00000005        0.00000002        0.00000000
     226         -0.597121        2.000000        0.00000003        0.00000003        0.00000000
     227         -0.595585        2.000000        0.00000029        0.00000027        0.00000000
     228         -0.591103        2.000000        0.00000000        0.00000000        0.00000000
     229         -0.582585        2.000000        0.00000000        0.00000001        0.00000000
     230         -0.576283        2.000000        0.00000000        0.00000001        0.00000000
     231         -0.258156        2.000000        0.00000000        0.00000000        0.00000000
     232         -0.253473        2.000000        0.00000000        0.00000000        0.00000000
     233         -0.246233        2.000000        0.00000000        0.00000000        0.00000000
     234         -0.244651        2.000000        0.00000000        0.00000000        0.00000000
     235         -0.243092        2.000000        0.00000000        0.00000000        0.00000000
     236         -0.242544        2.000000        0.00000003        0.00000027        0.00000001
     237         -0.241048        2.000000        0.00000000        0.00000000        0.00000000
     238         -0.240546        2.000000        0.00000000        0.00000000        0.00000000
     239         -0.237982        2.000000        0.00000000        0.00000002        0.00000000
     240         -0.237798        2.000000        0.00003222        0.00013509        0.00000206
     241         -0.236566        2.000000        0.00000343        0.00001033        0.00000036
     242         -0.235920        2.000000        0.00000171        0.00000485        0.00000017
     243         -0.233145        2.000000        0.00048502        0.00169295        0.00003422
     244         -0.232785        2.000000        0.00000000        0.00000001        0.00000000
     245         -0.232224        2.000000        0.00000000        0.00000002        0.00000000
     246         -0.232174        2.000000        0.00003377        0.00025967        0.00000476
     247         -0.232015        2.000000        0.00002334        0.00011946        0.00000394
     248         -0.230744        2.000000        0.00002216        0.00013332        0.00000334
     249         -0.230697        2.000000        0.00000009        0.00000045        0.00000001
     250         -0.229959        2.000000        0.00003329        0.00015872        0.00000230
     251         -0.229741        2.000000        0.00000000        0.00000004        0.00000000
     252         -0.228898        2.000000        0.00000001        0.00000003        0.00000000
     253         -0.227939        2.000000        0.00000000        0.00000000        0.00000000
     254         -0.227542        2.000000        0.00000000        0.00000000        0.00000000
     255         -0.227010        2.000000        0.00000000        0.00000000        0.00000000
     256         -0.226860        2.000000        0.00001552        0.00006030        0.00000048
     257         -0.226780        2.000000        0.00000000        0.00000001        0.00000000
     258         -0.226656        2.000000        0.00000000        0.00000000        0.00000000
     259         -0.226503        2.000000        0.00001539        0.00005958        0.00000079
     260         -0.226036        2.000000        0.00000000        0.00000000        0.00000000
     261         -0.225667        2.000000        0.00002100        0.00006986        0.00000042
     262         -0.225511        2.000000        0.00000012        0.00000022        0.00000000
     263         -0.224716        2.000000        0.00000003        0.00000009        0.00000000
     264         -0.224218        2.000000        0.00000001        0.00000001        0.00000000
     265         -0.223677        2.000000        0.00007814        0.00030253        0.00000181
     266         -0.223438        2.000000        0.00000016        0.00000072        0.00000001
     267         -0.223292        2.000000        0.00000001        0.00000004        0.00000000
     268         -0.223025        2.000000        0.00000008        0.00000036        0.00000001
     269         -0.222436        2.000000        0.00000011        0.00000038        0.00000001
     270         -0.222159        2.000000        0.00006940        0.00033583        0.00000451
     271         -0.221905        2.000000        0.00000005        0.00000027        0.00000001
     272         -0.221185        2.000000        0.00002198        0.00013504        0.00000165
     273         -0.220659        2.000000        0.00000003        0.00000013        0.00000000
     274         -0.219665        2.000000        0.00000175        0.00000586        0.00000003
     275         -0.219630        2.000000        0.00007526        0.00020731        0.00000180
     276         -0.218916        2.000000        0.00000002        0.00000014        0.00000000
     277         -0.218551        2.000000        0.00000793        0.00003624        0.00000049
     278         -0.218398        2.000000        0.00001766        0.00007768        0.00000133
     279         -0.218139        2.000000        0.00038067        0.00176235        0.00002974
     280         -0.217698        2.000000        0.00000202        0.00002007        0.00000042
     281         -0.217580        2.000000        0.00045400        0.00217814        0.00003931
     282         -0.217435        2.000000        0.00003952        0.00013473        0.00000257
     283         -0.216483        2.000000        0.00000976        0.00002985        0.00000072
     284         -0.216363        2.000000        0.00002944        0.00024469        0.00000563
     285         -0.216254        2.000000        0.00000016        0.00000150        0.00000004
     286         -0.215958        2.000000        0.00034132        0.00093049        0.00001932
     287         -0.215645        2.000000        0.00136501        0.00404382        0.00009142
     288         -0.215217        2.000000        0.00000005        0.00000018        0.00000000
     289         -0.214936        2.000000        0.00000001        0.00000002        0.00000000
     290         -0.214221        2.000000        0.00000009        0.00000035        0.00000001
     291         -0.213816        2.000000        0.00000052        0.00000167        0.00000003
     292         -0.213592        2.000000        0.00485540        0.01436997        0.00028108
     293         -0.213468        2.000000        0.00003439        0.00010002        0.00000215
     294         -0.213241        2.000000        0.00000014        0.00000042        0.00000001
     295         -0.213184        2.000000        0.00043273        0.00129039        0.00003068
     296         -0.212817        2.000000        0.00019171        0.00064129        0.00000944
     297         -0.212583        2.000000        0.00000779        0.00002259        0.00000041
     298         -0.212273        2.000000        0.00264690        0.00738983        0.00016119
     299         -0.211896        2.000000        0.00000003        0.00000014        0.00000000
     300         -0.211391        2.000000        0.00228776        0.00655180        0.00013045
     301         -0.211339        2.000000        0.00087621        0.00250648        0.00005050
     302         -0.211269        2.000000        0.00009045        0.00025870        0.00000526
     303         -0.211046        2.000000        0.00043871        0.00126165        0.00002770
     304         -0.210412        2.000000        0.00067962        0.00193471        0.00003639
     305         -0.210309        2.000000        0.01371171        0.03911409        0.00077000
     306         -0.210188        2.000000        0.00098899        0.00287767        0.00006182
     307         -0.210166        2.000000        0.00327093        0.00937842        0.00019330