# Projected DOS for list 144 of 3 atoms, at iteration step i = 0, E(Fermi) =     0.101540 a.u.
#     MO Eigenvalue [a.u.]      Occupation                 s                 p                 d
       1         -0.708367        2.000000        0.00000320        0.00000475        0.00000001
       2         -0.696979        2.000000        0.00000304        0.00000083        0.00000000
       3         -0.695301        2.000000        0.00002004        0.00001986        0.00000010
       4         -0.694902        2.000000        0.00000000        0.00000000        0.00000000
       5         -0.690081        2.000000        0.00000000        0.00000000        0.00000000
       6         -0.686805        2.000000        0.00000112        0.00000533        0.00000002
       7         -0.686571        2.000000        0.00000245        0.00000238        0.00000001
       8         -0.685003        2.000000        0.00000120        0.00000570        0.00000002
       9         -0.684036        2.000000        0.00001152        0.00000156        0.00000001
      10         -0.683920        2.000000        0.00000000        0.00000000        0.00000000
      11         -0.681735        2.000000        0.00001049        0.00000364        0.00000002
      12         -0.679408        2.000000        0.00005060        0.00001145        0.00000007
      13         -0.678932        2.000000        0.00000000        0.00000000        0.00000000
      14         -0.678381        2.000000        0.00000871        0.00000272        0.00000007
      15         -0.677963        2.000000        0.00006539        0.00002640        0.00000008
      16         -0.677540        2.000000        0.00002462        0.00000905        0.00000007
      17         -0.677381        2.000000        0.00000000        0.00000000        0.00000000
      18         -0.677246        2.000000        0.00000549        0.00006429        0.00000051
      19         -0.675827        2.000000        0.00051054        0.00019202        0.00000041
      20         -0.675724        2.000000        0.00000000        0.00000000        0.00000000
      21         -0.674932        2.000000        0.00000000        0.00000000        0.00000000
      22         -0.674380        2.000000        0.00000184        0.00001214        0.00000011
      23         -0.673393        2.000000        0.00098429        0.00039801        0.00000710
      24         -0.672924        2.000000        0.00000000        0.00000000        0.00000000
      25         -0.672289        2.000000        0.00009997        0.00003140        0.00000128
      26         -0.672227        2.000000        0.00001424        0.00000601        0.00000005
      27         -0.671275        2.000000        0.00000001        0.00000001        0.00000000
      28         -0.670770        2.000000        0.00031392        0.00022810        0.00000087
      29         -0.670400        2.000000        0.00017705        0.00005128        0.00000078
      30         -0.669922        2.000000        0.00006594        0.00031708        0.00000224
      31         -0.669606        2.000000        0.00000271        0.00000067        0.00000001
      32         -0.668947        2.000000        0.00226993        0.00048196        0.00000430
      33         -0.668931        2.000000        0.00128484        0.00027161        0.00000243
      34         -0.668431        2.000000        0.00146705        0.00047521        0.00000468
      35         -0.668008        2.000000        0.00051321        0.00019247        0.00000111
      36         -0.667083        2.000000        0.00105637        0.00075757        0.00002378
      37         -0.666996        2.000000        0.00000040        0.00000037        0.00000001
      38         -0.666939        2.000000        0.00039591        0.00060961        0.00000531
      39         -0.666646        2.000000        0.00001845        0.00015735        0.00000165
      40         -0.666363        2.000000        0.00083517        0.00029385        0.00000350
      41         -0.666281        2.000000        0.00000001        0.00000004        0.00000000
      42         -0.666129        2.000000        0.00037022        0.00007494        0.00000392
      43         -0.665867        2.000000        0.00050074        0.00034494        0.00000282
      44         -0.664404        2.000000        0.00000060        0.00000086        0.00000001
      45         -0.664061        2.000000        0.00127849        0.00054188        0.00000564
      46         -0.663948        2.000000        0.00007019        0.00003455        0.00000034
      47         -0.663550        2.000000        0.00118599        0.00088823        0.00001098
      48         -0.662943        2.000000        0.00000001        0.00000001        0.00000000
      49         -0.662627        2.000000        0.00000807        0.00006761        0.00000093
      50         -0.661965        2.000000        0.00099567        0.00020195        0.00000110
      51         -0.661528        2.000000        0.00000113        0.00000021        0.00000000
      52         -0.660900        2.000000        0.00001630        0.00000288        0.00000006
      53         -0.660166        2.000000        0.00049097        0.00035804        0.00000109
      54         -0.659683        2.000000        0.00000045        0.00000007        0.00000000
      55         -0.658835        2.000000        0.00235282        0.00108399        0.00000527
      56         -0.658814        2.000000        0.00000703        0.00000389        0.00000002
      57         -0.658691        2.000000        0.00000114        0.00000082        0.00000000
      58         -0.658084        2.000000        0.00038652        0.00016097        0.00000125
      59         -0.658073        2.000000        0.00007459        0.00003074        0.00000034
      60         -0.657975        2.000000        0.00017923        0.00013776        0.00000031
      61         -0.657678        2.000000        0.00579455        0.00204783        0.00000722
      62         -0.657592        2.000000        0.00074461        0.00052352        0.00000256
      63         -0.657226        2.000000        0.00000006        0.00000015        0.00000000
      64         -0.657087        2.000000        0.00030270        0.00018016        0.00000319
      65         -0.656742        2.000000        0.00000811        0.00005250        0.00000044
      66         -0.656449        2.000000        0.00132078        0.00019516        0.00000174
      67         -0.656215        2.000000        0.00032176        0.00011000        0.00000262
      68         -0.655700        2.000000        0.00000696        0.00003402        0.00000112
      69         -0.655174        2.000000        0.00000002        0.00000016        0.00000000
      70         -0.654827        2.000000        0.00030238        0.00041095        0.00000233
      71         -0.654660        2.000000        0.00000253        0.00000038        0.00000001
      72         -0.654406        2.000000        0.00056617        0.00023111        0.00000260
      73         -0.654250        2.000000        0.00000859        0.00012974        0.00001027
      74         -0.653619        2.000000        0.00000020        0.00000071        0.00000001
      75         -0.653105        2.000000        0.00033618        0.00009867        0.00000050
      76         -0.652904        2.000000        0.00019893        0.00007019        0.00000053
      77         -0.652612        2.000000        0.00467880        0.00127603        0.00000039
      78         -0.652411        2.000000        0.00121619        0.00026077        0.00000044
      79         -0.652213        2.000000        0.00000294        0.00000148        0.00000011
      80         -0.652083        2.000000        0.00003810        0.00001347        0.00000038
      81         -0.651807        2.000000        0.00019454        0.00002750        0.00000022
      82         -0.651706        2.000000        0.00001420        0.00000269        0.00000005
      83         -0.651237        2.000000        0.00074626        0.00014984        0.00000281
      84         -0.651053        2.000000        0.00082791        0.00015548        0.00000242
      85         -0.650411        2.000000        0.00135858        0.00037721        0.00000037
      86         -0.650326        2.000000        0.00262756        0.00062490        0.00000081
      87         -0.650219        2.000000        0.00408022        0.00070131        0.00000864
      88         -0.650130        2.000000        0.00146657        0.00027760        0.00000104
      89         -0.649849        2.000000        0.00457951        0.00139975        0.00000051
      90         -0.649510        2.000000        0.01989574        0.00536000        0.00000304
      91         -0.648737        2.000000        0.00035434        0.00030806        0.00000248
      92         -0.648608        2.000000        0.00002823        0.00008423        0.00000100
      93         -0.648509        2.000000        0.00230318        0.00286790        0.00001597
      94         -0.648091        2.000000        0.00011545        0.00004135        0.00000002
      95         -0.647956        2.000000        0.00000022        0.00000003        0.00000000
      96         -0.647875        2.000000        0.00054612        0.00035687        0.00000082
      97         -0.647628        2.000000        0.00560036        0.00150063        0.00000081
      98         -0.647248        2.000000        0.00003991        0.00006460        0.00000224
      99         -0.646997        2.000000        0.00000060        0.00000048        0.00000002
     100         -0.646893        2.000000        0.00000004        0.00000036        0.00000001
     101         -0.646794        2.000000        0.00008267        0.00004542        0.00000181
     102         -0.645843        2.000000        0.00000115        0.00001034        0.00000043
     103         -0.645519        2.000000        0.00054063        0.00020263        0.00000089
     104         -0.645232        2.000000        0.00009794        0.00004632        0.00000110
     105         -0.644964        2.000000        0.00727695        0.00236305        0.00000833
     106         -0.644451        2.000000        0.00025798        0.00005767        0.00000223
     107         -0.644170        2.000000        0.00141965        0.00083455        0.00005458
     108         -0.643891        2.000000        0.00053284        0.00011362        0.00000541
     109         -0.643862        2.000000        0.00238632        0.00061348        0.00002667
     110         -0.643478        2.000000        0.00012783        0.00010480        0.00000124
     111         -0.643325        2.000000        0.00045587        0.00007793        0.00000074
     112         -0.642934        2.000000        0.00013167        0.00003627        0.00000041
     113         -0.642899        2.000000        0.00344631        0.00088140        0.00000210
     114         -0.642460        2.000000        0.00198428        0.00035658        0.00000458
     115         -0.642175        2.000000        0.00000166        0.00000656        0.00000020
     116         -0.642120        2.000000        0.00196620        0.00067658        0.00000284
     117         -0.641851        2.000000        0.00345762        0.00062679        0.00000516
     118         -0.641683        2.000000        0.00096324        0.00050393        0.00000141
     119         -0.641305        2.000000        0.00803206        0.00125291        0.00002876
     120         -0.641072        2.000000        0.03867270        0.00603789        0.00010279
     121         -0.640960        2.000000        0.00993031        0.00154668        0.00002790
     122         -0.640793        2.000000        0.00948092        0.00145753        0.00002724
     123         -0.640578        2.000000        0.05077009        0.00781429        0.00015174
     124         -0.640464        2.000000        0.00337994        0.00052782        0.00001085
     125         -0.640169        2.000000        0.00021559        0.00003324        0.00000081
     126         -0.639736        2.000000        0.00006038        0.00001095        0.00000024
     127         -0.639499        2.000000        0.00014763        0.00002729        0.00000052
     128         -0.639154        2.000000        0.00014707        0.00016503        0.00000020
     129         -0.639060        2.000000        0.00001237        0.00009433        0.00000070
     130         -0.638976        2.000000        0.00031492        0.00028672        0.00000442
     131         -0.638593        2.000000        0.00107129        0.00021482        0.00000316
     132         -0.638261        2.000000        0.00000940        0.00007890        0.00000078
     133         -0.638059        2.000000        0.00091674        0.00119098        0.00001834
     134         -0.637912        2.000000        0.00007170        0.00042488        0.00000988
     135         -0.637762        2.000000        0.00002937        0.00014037        0.00000033
     136         -0.637584        2.000000        0.00000096        0.00001057        0.00000023
     137         -0.636804        2.000000        0.00005550        0.00003153        0.00000050
     138         -0.636640        2.000000        0.00000657        0.00000883        0.00000016
     139         -0.636429        2.000000        0.00001581        0.00001592        0.00000027
     140         -0.635515        2.000000        0.00001196        0.00000411        0.00000010
     141         -0.634989        2.000000        0.00007431        0.00001484        0.00000018
     142         -0.634462        2.000000        0.00004207        0.00001011        0.00000010
     143         -0.634132        2.000000        0.00023166        0.00005604        0.00000042
     144         -0.633763        2.000000        0.00000045        0.00000062        0.00000001
     145         -0.633531        2.000000        0.03252956        0.00970761        0.00007113
     146         -0.632585        2.000000        0.00010019        0.00003666        0.00000027
     147         -0.632333        2.000000        0.00000001        0.00000007        0.00000000
     148         -0.632031        2.000000        0.00000001        0.00000004        0.00000000
     149         -0.631841        2.000000        0.00000006        0.00000004        0.00000000
     150         -0.631318        2.000000        0.00000842        0.00000540        0.00000004
     151         -0.630640        2.000000        0.00000013        0.00000043        0.00000000
     152         -0.630519        2.000000        0.00008807        0.00002235        0.00000017
     153         -0.630490        2.000000        0.00122472        0.00030646        0.00000226
     154         -0.629959        2.000000        0.00001158        0.00000308        0.00000002
     155         -0.629452        2.000000        0.00141286        0.00036945        0.00000253
     156         -0.629210        2.000000        0.14204852        0.03719817        0.00024878
     157         -0.628856        2.000000        0.00000031        0.00000011        0.00000000
     158         -0.628516        2.000000        0.04306447        0.01150421        0.00007092
     159         -0.628511        2.000000        0.02729404        0.00724561        0.00004324
     160         -0.628382        2.000000        0.03406925        0.00924009        0.00005240
     161         -0.628242        2.000000        0.03744765        0.01035908        0.00005847
     162         -0.628026        2.000000        0.03678354        0.01040927        0.00005655
     163         -0.627712        2.000000        0.00513270        0.00132305        0.00001269
     164         -0.627438        2.000000        0.00285724        0.00085357        0.00000443
     165         -0.627281        2.000000        0.00633530        0.00199887        0.00000962
     166         -0.626983        2.000000        0.00026785        0.00004606        0.00000315
     167         -0.626804        2.000000        0.00006034        0.00001069        0.00000071
     168         -0.626588        2.000000        0.00041359        0.00008620        0.00000696
     169         -0.626019        2.000000        0.00000003        0.00000004        0.00000000
     170         -0.625843        2.000000        0.06976234        0.01882864        0.00018310
     171         -0.625019        2.000000        0.04586601        0.01166460        0.00014398
     172         -0.624831        2.000000        0.00315248        0.00081682        0.00000965
     173         -0.624166        2.000000        0.00050280        0.00011374        0.00000207
     174         -0.623906        2.000000        0.00000463        0.00000209        0.00000000
     175         -0.623799        2.000000        0.00004536        0.00001296        0.00000013
     176         -0.623716        2.000000        0.00134634        0.00041664        0.00000376
     177         -0.623382        2.000000        0.00096741        0.00023104        0.00000386
     178         -0.623067        2.000000        0.00000377        0.00000130        0.00000001
     179         -0.622801        2.000000        0.00007958        0.00002140        0.00000026
     180         -0.622617        2.000000        0.00008755        0.00001675        0.00000075
     181         -0.622499        2.000000        0.00107590        0.00020087        0.00000864
     182         -0.621672        2.000000        0.00121523        0.00045206        0.00000249
     183         -0.621151        2.000000        0.00487716        0.00234445        0.00000793
     184         -0.620781        2.000000        0.00188357        0.00072914        0.00000377
     185         -0.620579        2.000000        0.00000274        0.00000384        0.00000002
     186         -0.619930        2.000000        0.00004212        0.00002748        0.00000010
     187         -0.618694        2.000000        0.04971010        0.02160995        0.00005157
     188         -0.618461        2.000000        0.00000086        0.00000188        0.00000001
     189         -0.618211        2.000000        0.00046698        0.00024962        0.00000021
     190         -0.617957        2.000000        0.00005011        0.00001333        0.00000018
     191         -0.617770        2.000000        0.00000624        0.00000302        0.00000000
     192         -0.617636        2.000000        0.00000006        0.00000046        0.00000002
     193         -0.617200        2.000000        0.00001375        0.00000449        0.00000002
     194         -0.616810        2.000000        0.00000233        0.00000063        0.00000001
     195         -0.615618        2.000000        0.00001113        0.00000402        0.00000003
     196         -0.615377        2.000000        0.00000315        0.00000143        0.00000000
     197         -0.615228        2.000000        0.00001623        0.00000549        0.00000004
     198         -0.614941        2.000000        0.00008157        0.00002644        0.00000031
     199         -0.613862        2.000000        0.00000009        0.00000003        0.00000000
     200         -0.613167        2.000000        0.00000388        0.00000098        0.00000002
     201         -0.612937        2.000000        0.00000012        0.00000263        0.00000001
     202         -0.612465        2.000000        0.00000943        0.00000221        0.00000007
     203         -0.611371        2.000000        0.00000068        0.00000026        0.00000001
     204         -0.611273        2.000000        0.00000214        0.00000064        0.00000001
     205         -0.610903        2.000000        0.00006984        0.00001800        0.00000038
     206         -0.609912        2.000000        0.00000781        0.00000189        0.00000007
     207         -0.609442        2.000000        0.00158924        0.00039317        0.00001570
     208         -0.609149        2.000000        0.00015182        0.00003763        0.00000147
     209         -0.608882        2.000000        0.00000434        0.00000110        0.00000004
     210         -0.608562        2.000000        0.00000001        0.00000000        0.00000000
     211         -0.608012        2.000000        0.00000439        0.00000120        0.00000005
     212         -0.607014        2.000000        0.00000700        0.00000212        0.00000011
     213         -0.606300        2.000000        0.00000269        0.00000081        0.00000002
     214         -0.605948        2.000000        0.00000927        0.00000296        0.00000006
     215         -0.605403        2.000000        0.00001285        0.00000415        0.00000014
     216         -0.604664        2.000000        0.00000057        0.00000073        0.00000002
     217         -0.604080        2.000000        0.00000023        0.00000017        0.00000001
     218         -0.603538        2.000000        0.00000022        0.00000067        0.00000002
     219         -0.603145        2.000000        0.00000074        0.00000026        0.00000001
     220         -0.602213        2.000000        0.00000028        0.00000039        0.00000000
     221         -0.601871        2.000000        0.00000002        0.00000002        0.00000000
     222         -0.600521        2.000000        0.00001489        0.00001098        0.00000003
     223         -0.599848        2.000000        0.00000010        0.00000007        0.00000000
     224         -0.598111        2.000000        0.00000000        0.00000000        0.00000000
     225         -0.597286        2.000000        0.00000003        0.00000001        0.00000000
     226         -0.597121        2.000000        0.00000000        0.00000000        0.00000000
     227         -0.595585        2.000000        0.00000000        0.00000000        0.00000000
     228         -0.591103        2.000000        0.00000000        0.00000000        0.00000000
     229         -0.582585        2.000000        0.00000000        0.00000000        0.00000000
     230         -0.576283        2.000000        0.00000000        0.00000000        0.00000000
     231         -0.258156        2.000000        0.00000129        0.00000385        0.00000008
     232         -0.253473        2.000000        0.00000005        0.00000033        0.00000000
     233         -0.246233        2.000000        0.00000046        0.00000417        0.00000001
     234         -0.244651        2.000000        0.00000031        0.00000534        0.00000002
     235         -0.243092        2.000000        0.00000024        0.00000104        0.00000002
     236         -0.242544        2.000000        0.00000000        0.00000000        0.00000000
     237         -0.241048        2.000000        0.00000064        0.00000789        0.00000001
     238         -0.240546        2.000000        0.00000426        0.00001731        0.00000022
     239         -0.237982        2.000000        0.00002552        0.00009699        0.00000143
     240         -0.237798        2.000000        0.00000001        0.00000003        0.00000000
     241         -0.236566        2.000000        0.00000002        0.00000016        0.00000000
     242         -0.235920        2.000000        0.00000030        0.00000112        0.00000002
     243         -0.233145        2.000000        0.00000000        0.00000000        0.00000000
     244         -0.232785        2.000000        0.00000081        0.00000876        0.00000002
     245         -0.232224        2.000000        0.00003043        0.00008243        0.00000211
     246         -0.232174        2.000000        0.00000000        0.00000000        0.00000000
     247         -0.232015        2.000000        0.00000001        0.00000002        0.00000000
     248         -0.230744        2.000000        0.00000002        0.00000007        0.00000000
     249         -0.230697        2.000000        0.00000991        0.00003054        0.00000096
     250         -0.229959        2.000000        0.00000000        0.00000001        0.00000000
     251         -0.229741        2.000000        0.00000017        0.00000462        0.00000006
     252         -0.228898        2.000000        0.00001141        0.00006791        0.00000052
     253         -0.227939        2.000000        0.00067305        0.00260324        0.00003344
     254         -0.227542        2.000000        0.00011719        0.00047512        0.00000537
     255         -0.227010        2.000000        0.00067383        0.00417525        0.00005131
     256         -0.226860        2.000000        0.00000001        0.00000010        0.00000000
     257         -0.226780        2.000000        0.00012564        0.00108279        0.00001440
     258         -0.226656        2.000000        0.00001392        0.00010427        0.00000165
     259         -0.226503        2.000000        0.00000001        0.00000002        0.00000000
     260         -0.226036        2.000000        0.00000228        0.00001432        0.00000026
     261         -0.225667        2.000000        0.00000001        0.00000002        0.00000000
     262         -0.225511        2.000000        0.00000165        0.00000604        0.00000009
     263         -0.224716        2.000000        0.00001002        0.00008288        0.00000244
     264         -0.224218        2.000000        0.00001773        0.00020985        0.00000497
     265         -0.223677        2.000000        0.00000013        0.00000064        0.00000001
     266         -0.223438        2.000000        0.00001218        0.00013582        0.00000230
     267         -0.223292        2.000000        0.00000003        0.00000039        0.00000000
     268         -0.223025        2.000000        0.00003513        0.00012364        0.00000180
     269         -0.222436        2.000000        0.00000170        0.00000711        0.00000004
     270         -0.222159        2.000000        0.00000001        0.00000003        0.00000000
     271         -0.221905        2.000000        0.00015346        0.00084238        0.00001468
     272         -0.221185        2.000000        0.00000008        0.00000066        0.00000001
     273         -0.220659        2.000000        0.00025197        0.00164576        0.00002589
     274         -0.219665        2.000000        0.00021336        0.00164818        0.00001731
     275         -0.219630        2.000000        0.00000707        0.00005291        0.00000058
     276         -0.218916        2.000000        0.00009758        0.00054677        0.00000616
     277         -0.218551        2.000000        0.00010373        0.00034053        0.00000391
     278         -0.218398        2.000000        0.00012163        0.00044717        0.00000485
     279         -0.218139        2.000000        0.00000026        0.00000184        0.00000002
     280         -0.217698        2.000000        0.00057048        0.00252955        0.00003288
     281         -0.217580        2.000000        0.00003575        0.00012434        0.00000174
     282         -0.217435        2.000000        0.00020521        0.00066097        0.00000981
     283         -0.216483        2.000000        0.00002807        0.00020857        0.00000220
     284         -0.216363        2.000000        0.00000121        0.00000368        0.00000006
     285         -0.216254        2.000000        0.00004845        0.00013613        0.00000349
     286         -0.215958        2.000000        0.00000018        0.00000060        0.00000001
     287         -0.215645        2.000000        0.00000109        0.00000381        0.00000003
     288         -0.215217        2.000000        0.00000122        0.00000966        0.00000013
     289         -0.214936        2.000000        0.00003677        0.00018690        0.00000152
     290         -0.214221        2.000000        0.00000718        0.00004459        0.00000043
     291         -0.213816        2.000000        0.00001857        0.00006204        0.00000133
     292         -0.213592        2.000000        0.00000001        0.00000009        0.00000000
     293         -0.213468        2.000000        0.00005558        0.00017144        0.00000259
     294         -0.213241        2.000000        0.00001232        0.00003377        0.00000078
     295         -0.213184        2.000000        0.00000303        0.00000953        0.00000012
     296         -0.212817        2.000000        0.00000032        0.00000107        0.00000001
     297         -0.212583        2.000000        0.00000486        0.00002079        0.00000020
     298         -0.212273        2.000000        0.00000034        0.00000149        0.00000001
     299         -0.211896        2.000000        0.00004551        0.00027744        0.00000382
     300         -0.211391        2.000000        0.00000042        0.00000757        0.00000008
     301         -0.211339        2.000000        0.00000079        0.00000919        0.00000003
     302         -0.211269        2.000000        0.00000088        0.00000468        0.00000011
     303         -0.211046        2.000000        0.00000641        0.00003385        0.00000090
     304         -0.210412        2.000000        0.00001875        0.00009522        0.00000143
     305         -0.210309        2.000000        0.00000112        0.00001378        0.00000014
     306         -0.210188        2.000000        0.00003533        0.00012166        0.00000175
     307         -0.210166        2.000000        0.00001571        0.00004981        0.00000137