# Projected DOS for list 5 of 3 atoms, at iteration step i = 0, E(Fermi) =     0.101540 a.u.
#     MO Eigenvalue [a.u.]      Occupation                 s                 p                 d
       1         -0.708367        2.000000        0.00000646        0.00000054        0.00000002
       2         -0.696979        2.000000        0.00276703        0.00038026        0.00000493
       3         -0.695301        2.000000        0.37361097        0.05723645        0.00062016
       4         -0.694902        2.000000        0.00000039        0.00000006        0.00000000
       5         -0.690081        2.000000        0.00000000        0.00000000        0.00000000
       6         -0.686805        2.000000        0.00003894        0.00017320        0.00000352
       7         -0.686571        2.000000        0.01045498        0.00203462        0.00005521
       8         -0.685003        2.000000        0.00541638        0.00460714        0.00002922
       9         -0.684036        2.000000        0.00002578        0.00011047        0.00000087
      10         -0.683920        2.000000        0.00000000        0.00000000        0.00000000
      11         -0.681735        2.000000        0.00016583        0.00004776        0.00000022
      12         -0.679408        2.000000        0.00060328        0.00145275        0.00002110
      13         -0.678932        2.000000        0.00000000        0.00000000        0.00000000
      14         -0.678381        2.000000        0.00404594        0.00138301        0.00000449
      15         -0.677963        2.000000        0.00768023        0.00364380        0.00001248
      16         -0.677540        2.000000        0.00016121        0.00183034        0.00004346
      17         -0.677381        2.000000        0.00000000        0.00000000        0.00000000
      18         -0.677246        2.000000        0.00703262        0.00704646        0.00007744
      19         -0.675827        2.000000        0.16528012        0.05872006        0.00021968
      20         -0.675724        2.000000        0.00000001        0.00000000        0.00000000
      21         -0.674932        2.000000        0.00000000        0.00000000        0.00000000
      22         -0.674380        2.000000        0.00019248        0.00109408        0.00001226
      23         -0.673393        2.000000        0.00030045        0.00011926        0.00000045
      24         -0.672924        2.000000        0.00000000        0.00000000        0.00000000
      25         -0.672289        2.000000        0.00464926        0.00204783        0.00000512
      26         -0.672227        2.000000        0.00005028        0.00003106        0.00000016
      27         -0.671275        2.000000        0.00000000        0.00000000        0.00000000
      28         -0.670770        2.000000        0.00067057        0.00044245        0.00000353
      29         -0.670400        2.000000        0.00193309        0.00066369        0.00000319
      30         -0.669922        2.000000        0.00047022        0.00028145        0.00000031
      31         -0.669606        2.000000        0.00000005        0.00000008        0.00000000
      32         -0.668947        2.000000        0.00118290        0.00061504        0.00000118
      33         -0.668931        2.000000        0.00076930        0.00039351        0.00000074
      34         -0.668431        2.000000        0.01290847        0.00554290        0.00000737
      35         -0.668008        2.000000        0.00216827        0.00092615        0.00000111
      36         -0.667083        2.000000        0.00324016        0.00158335        0.00000199
      37         -0.666996        2.000000        0.00000006        0.00000003        0.00000000
      38         -0.666939        2.000000        0.00011167        0.00026665        0.00000054
      39         -0.666646        2.000000        0.00066392        0.00035415        0.00000032
      40         -0.666363        2.000000        0.00015655        0.00011628        0.00000014
      41         -0.666281        2.000000        0.00000043        0.00000030        0.00000000
      42         -0.666129        2.000000        0.00193823        0.00105831        0.00000163
      43         -0.665867        2.000000        0.00179946        0.00101899        0.00000249
      44         -0.664404        2.000000        0.00000043        0.00000022        0.00000000
      45         -0.664061        2.000000        0.00010422        0.00006991        0.00000013
      46         -0.663948        2.000000        0.00000613        0.00000280        0.00000000
      47         -0.663550        2.000000        0.00027151        0.00023399        0.00000136
      48         -0.662943        2.000000        0.00000000        0.00000001        0.00000000
      49         -0.662627        2.000000        0.03592473        0.01956403        0.00001773
      50         -0.661965        2.000000        0.00081442        0.00056106        0.00000119
      51         -0.661528        2.000000        0.00000036        0.00000018        0.00000000
      52         -0.660900        2.000000        0.00000011        0.00000013        0.00000000
      53         -0.660166        2.000000        0.00035641        0.00107062        0.00001134
      54         -0.659683        2.000000        0.00000008        0.00000005        0.00000000
      55         -0.658835        2.000000        0.00847418        0.00466839        0.00000660
      56         -0.658814        2.000000        0.00003091        0.00001707        0.00000002
      57         -0.658691        2.000000        0.00000539        0.00000299        0.00000000
      58         -0.658084        2.000000        0.00036785        0.00029186        0.00000031
      59         -0.658073        2.000000        0.00006265        0.00006999        0.00000007
      60         -0.657975        2.000000        0.00094776        0.00062686        0.00000204
      61         -0.657678        2.000000        0.00730177        0.00508323        0.00001860
      62         -0.657592        2.000000        0.00037271        0.00019000        0.00000030
      63         -0.657226        2.000000        0.00000069        0.00000057        0.00000000
      64         -0.657087        2.000000        0.00580442        0.00449221        0.00001799
      65         -0.656742        2.000000        0.00006622        0.00009435        0.00000042
      66         -0.656449        2.000000        0.00440375        0.00278992        0.00000858
      67         -0.656215        2.000000        0.00459254        0.00304295        0.00001066
      68         -0.655700        2.000000        0.00085825        0.00063802        0.00000284
      69         -0.655174        2.000000        0.00000122        0.00000109        0.00000001
      70         -0.654827        2.000000        0.00198439        0.00260716        0.00001782
      71         -0.654660        2.000000        0.00000040        0.00000226        0.00000002
      72         -0.654406        2.000000        0.00380650        0.00302175        0.00001377
      73         -0.654250        2.000000        0.00060127        0.00176719        0.00001418
      74         -0.653619        2.000000        0.00000019        0.00000040        0.00000000
      75         -0.653105        2.000000        0.00002592        0.00005060        0.00000008
      76         -0.652904        2.000000        0.00004303        0.00004593        0.00000002
      77         -0.652612        2.000000        0.00483974        0.00441897        0.00000197
      78         -0.652411        2.000000        0.01194597        0.00706537        0.00000782
      79         -0.652213        2.000000        0.00010416        0.00007771        0.00000003
      80         -0.652083        2.000000        0.00046838        0.00031169        0.00000018
      81         -0.651807        2.000000        0.00122255        0.00076969        0.00000096
      82         -0.651706        2.000000        0.00013630        0.00008554        0.00000015
      83         -0.651237        2.000000        0.00066324        0.00043032        0.00000117
      84         -0.651053        2.000000        0.00050248        0.00035481        0.00000141
      85         -0.650411        2.000000        0.00000224        0.00001020        0.00000010
      86         -0.650326        2.000000        0.00000437        0.00001309        0.00000013
      87         -0.650219        2.000000        0.00313469        0.00262565        0.00000121
      88         -0.650130        2.000000        0.00000501        0.00001559        0.00000009
      89         -0.649849        2.000000        0.00066578        0.00050158        0.00000017
      90         -0.649510        2.000000        0.00151995        0.00107861        0.00000035
      91         -0.648737        2.000000        0.00010107        0.00007068        0.00000002
      92         -0.648608        2.000000        0.00002007        0.00001481        0.00000001
      93         -0.648509        2.000000        0.00004015        0.00006995        0.00000020
      94         -0.648091        2.000000        0.00000092        0.00000052        0.00000000
      95         -0.647956        2.000000        0.00000003        0.00000002        0.00000000
      96         -0.647875        2.000000        0.00044876        0.00035741        0.00000049
      97         -0.647628        2.000000        0.00022982        0.00012776        0.00000016
      98         -0.647248        2.000000        0.00002093        0.00001979        0.00000043
      99         -0.646997        2.000000        0.00000002        0.00000004        0.00000000
     100         -0.646893        2.000000        0.00000008        0.00000009        0.00000000
     101         -0.646794        2.000000        0.00000639        0.00000251        0.00000004
     102         -0.645843        2.000000        0.00002350        0.00002162        0.00000011
     103         -0.645519        2.000000        0.00143546        0.00130105        0.00000620
     104         -0.645232        2.000000        0.00027060        0.00025902        0.00000136
     105         -0.644964        2.000000        0.00495981        0.00426026        0.00002030
     106         -0.644451        2.000000        0.00000155        0.00000040        0.00000000
     107         -0.644170        2.000000        0.00012254        0.00016307        0.00000134
     108         -0.643891        2.000000        0.00003734        0.00004608        0.00000037
     109         -0.643862        2.000000        0.00007103        0.00009266        0.00000080
     110         -0.643478        2.000000        0.00068267        0.00078533        0.00000672
     111         -0.643325        2.000000        0.00005207        0.00006733        0.00000068
     112         -0.642934        2.000000        0.00000357        0.00000350        0.00000002
     113         -0.642899        2.000000        0.00307783        0.00285280        0.00001328
     114         -0.642460        2.000000        0.00085798        0.00038503        0.00000095
     115         -0.642175        2.000000        0.00000064        0.00000079        0.00000001
     116         -0.642120        2.000000        0.00139062        0.00091302        0.00000281
     117         -0.641851        2.000000        0.00010570        0.00008296        0.00000034
     118         -0.641683        2.000000        0.00086502        0.00057239        0.00000157
     119         -0.641305        2.000000        0.00000935        0.00000348        0.00000001
     120         -0.641072        2.000000        0.00013261        0.00011602        0.00000057
     121         -0.640960        2.000000        0.00001450        0.00001615        0.00000010
     122         -0.640793        2.000000        0.00002151        0.00002015        0.00000011
     123         -0.640578        2.000000        0.00007376        0.00009008        0.00000050
     124         -0.640464        2.000000        0.00000301        0.00000533        0.00000003
     125         -0.640169        2.000000        0.00000065        0.00000067        0.00000000
     126         -0.639736        2.000000        0.00001105        0.00001167        0.00000005
     127         -0.639499        2.000000        0.00007694        0.00007346        0.00000028
     128         -0.639154        2.000000        0.00157776        0.00148093        0.00000680
     129         -0.639060        2.000000        0.00114130        0.00106400        0.00000516
     130         -0.638976        2.000000        0.00250015        0.00233645        0.00001222
     131         -0.638593        2.000000        0.00000506        0.00000770        0.00000010
     132         -0.638261        2.000000        0.00009882        0.00008980        0.00000006
     133         -0.638059        2.000000        0.00000013        0.00000132        0.00000000
     134         -0.637912        2.000000        0.00002416        0.00002892        0.00000033
     135         -0.637762        2.000000        0.00019569        0.00018891        0.00000145
     136         -0.637584        2.000000        0.00000014        0.00000020        0.00000000
     137         -0.636804        2.000000        0.00177366        0.00253450        0.00000541
     138         -0.636640        2.000000        0.00001100        0.00001730        0.00000005
     139         -0.636429        2.000000        0.00001375        0.00002108        0.00000005
     140         -0.635515        2.000000        0.00000770        0.00001036        0.00000002
     141         -0.634989        2.000000        0.00000021        0.00000036        0.00000000
     142         -0.634462        2.000000        0.00000470        0.00000617        0.00000001
     143         -0.634132        2.000000        0.00001263        0.00001669        0.00000002
     144         -0.633763        2.000000        0.00000030        0.00000034        0.00000000
     145         -0.633531        2.000000        0.00034855        0.00046237        0.00000285
     146         -0.632585        2.000000        0.00009715        0.00015739        0.00000046
     147         -0.632333        2.000000        0.00000027        0.00000042        0.00000000
     148         -0.632031        2.000000        0.00000035        0.00000056        0.00000000
     149         -0.631841        2.000000        0.00000002        0.00000003        0.00000000
     150         -0.631318        2.000000        0.00000461        0.00000723        0.00000003
     151         -0.630640        2.000000        0.00000682        0.00000799        0.00000001
     152         -0.630519        2.000000        0.00002036        0.00002460        0.00000004
     153         -0.630490        2.000000        0.00005564        0.00007174        0.00000011
     154         -0.629959        2.000000        0.00000001        0.00000002        0.00000000
     155         -0.629452        2.000000        0.00000032        0.00000043        0.00000000
     156         -0.629210        2.000000        0.00000597        0.00000915        0.00000005
     157         -0.628856        2.000000        0.00000000        0.00000000        0.00000000
     158         -0.628516        2.000000        0.00000755        0.00000949        0.00000007
     159         -0.628511        2.000000        0.00001022        0.00001147        0.00000003
     160         -0.628382        2.000000        0.00000779        0.00000924        0.00000004
     161         -0.628242        2.000000        0.00000280        0.00000461        0.00000005
     162         -0.628026        2.000000        0.00000355        0.00000467        0.00000003
     163         -0.627712        2.000000        0.00000228        0.00000223        0.00000000
     164         -0.627438        2.000000        0.00000034        0.00000103        0.00000001
     165         -0.627281        2.000000        0.00000003        0.00000011        0.00000000
     166         -0.626983        2.000000        0.00000026        0.00000017        0.00000000
     167         -0.626804        2.000000        0.00000013        0.00000011        0.00000000
     168         -0.626588        2.000000        0.00000017        0.00000125        0.00000001
     169         -0.626019        2.000000        0.00000000        0.00000000        0.00000000
     170         -0.625843        2.000000        0.00000472        0.00000543        0.00000005
     171         -0.625019        2.000000        0.00000618        0.00000550        0.00000003
     172         -0.624831        2.000000        0.00000034        0.00000034        0.00000000
     173         -0.624166        2.000000        0.00000014        0.00000013        0.00000000
     174         -0.623906        2.000000        0.00000006        0.00000021        0.00000000
     175         -0.623799        2.000000        0.00000000        0.00000001        0.00000000
     176         -0.623716        2.000000        0.00000006        0.00000016        0.00000000
     177         -0.623382        2.000000        0.00000038        0.00000030        0.00000000
     178         -0.623067        2.000000        0.00023420        0.00020601        0.00000058
     179         -0.622801        2.000000        0.00000203        0.00000176        0.00000001
     180         -0.622617        2.000000        0.00000003        0.00000008        0.00000000
     181         -0.622499        2.000000        0.00000108        0.00000087        0.00000000
     182         -0.621672        2.000000        0.00000111        0.00000102        0.00000000
     183         -0.621151        2.000000        0.00000179        0.00000156        0.00000000
     184         -0.620781        2.000000        0.00000021        0.00000028        0.00000000
     185         -0.620579        2.000000        0.00000001        0.00000001        0.00000000
     186         -0.619930        2.000000        0.00000009        0.00000017        0.00000000
     187         -0.618694        2.000000        0.00000331        0.00000357        0.00000001
     188         -0.618461        2.000000        0.00000001        0.00000004        0.00000000
     189         -0.618211        2.000000        0.00000684        0.00000569        0.00000000
     190         -0.617957        2.000000        0.00000223        0.00000277        0.00000001
     191         -0.617770        2.000000        0.00000014        0.00000017        0.00000000
     192         -0.617636        2.000000        0.00000060        0.00000075        0.00000000
     193         -0.617200        2.000000        0.00000012        0.00000018        0.00000000
     194         -0.616810        2.000000        0.00000000        0.00000000        0.00000000
     195         -0.615618        2.000000        0.00000000        0.00000001        0.00000000
     196         -0.615377        2.000000        0.00000064        0.00000143        0.00000006
     197         -0.615228        2.000000        0.00000000        0.00000001        0.00000000
     198         -0.614941        2.000000        0.00001539        0.00008203        0.00000355
     199         -0.613862        2.000000        0.00000000        0.00000001        0.00000000
     200         -0.613167        2.000000        0.00000000        0.00000001        0.00000000
     201         -0.612937        2.000000        0.00000304        0.00000525        0.00000027
     202         -0.612465        2.000000        0.00000001        0.00000005        0.00000000
     203         -0.611371        2.000000        0.00000002        0.00000009        0.00000000
     204         -0.611273        2.000000        0.00000000        0.00000002        0.00000000
     205         -0.610903        2.000000        0.00000002        0.00000004        0.00000000
     206         -0.609912        2.000000        0.00000000        0.00000000        0.00000000
     207         -0.609442        2.000000        0.00000071        0.00000114        0.00000002
     208         -0.609149        2.000000        0.00000006        0.00000008        0.00000000
     209         -0.608882        2.000000        0.00000000        0.00000000        0.00000000
     210         -0.608562        2.000000        0.00000000        0.00000000        0.00000000
     211         -0.608012        2.000000        0.00000000        0.00000001        0.00000000
     212         -0.607014        2.000000        0.00000000        0.00000001        0.00000000
     213         -0.606300        2.000000        0.00000001        0.00000002        0.00000000
     214         -0.605948        2.000000        0.00000011        0.00000024        0.00000000
     215         -0.605403        2.000000        0.00000002        0.00000006        0.00000000
     216         -0.604664        2.000000        0.00000000        0.00000000        0.00000000
     217         -0.604080        2.000000        0.00000000        0.00000000        0.00000000
     218         -0.603538        2.000000        0.00000000        0.00000000        0.00000000
     219         -0.603145        2.000000        0.00000000        0.00000000        0.00000000
     220         -0.602213        2.000000        0.00000000        0.00000000        0.00000000
     221         -0.601871        2.000000        0.00000000        0.00000000        0.00000000
     222         -0.600521        2.000000        0.00000000        0.00000000        0.00000000
     223         -0.599848        2.000000        0.00000000        0.00000000        0.00000000
     224         -0.598111        2.000000        0.00000000        0.00000000        0.00000000
     225         -0.597286        2.000000        0.00000000        0.00000000        0.00000000
     226         -0.597121        2.000000        0.00000000        0.00000000        0.00000000
     227         -0.595585        2.000000        0.00000000        0.00000000        0.00000000
     228         -0.591103        2.000000        0.00000000        0.00000000        0.00000000
     229         -0.582585        2.000000        0.00000000        0.00000000        0.00000000
     230         -0.576283        2.000000        0.00000000        0.00000000        0.00000000
     231         -0.258156        2.000000        0.00000041        0.00000137        0.00000003
     232         -0.253473        2.000000        0.00001885        0.00004804        0.00000125
     233         -0.246233        2.000000        0.00721910        0.01958486        0.00042134
     234         -0.244651        2.000000        0.07109993        0.19960463        0.00397879
     235         -0.243092        2.000000        0.00261840        0.00808966        0.00013443
     236         -0.242544        2.000000        0.00000005        0.00000017        0.00000000
     237         -0.241048        2.000000        0.04142133        0.12899913        0.00201385
     238         -0.240546        2.000000        0.00039222        0.00126439        0.00001958
     239         -0.237982        2.000000        0.00000881        0.00010139        0.00000066
     240         -0.237798        2.000000        0.00000089        0.00000490        0.00000007
     241         -0.236566        2.000000        0.00001430        0.00010655        0.00000121
     242         -0.235920        2.000000        0.00001747        0.00008032        0.00000151
     243         -0.233145        2.000000        0.00000001        0.00000003        0.00000000
     244         -0.232785        2.000000        0.00621493        0.01725928        0.00058190
     245         -0.232224        2.000000        0.00005919        0.00027347        0.00000139
     246         -0.232174        2.000000        0.00000002        0.00000006        0.00000000
     247         -0.232015        2.000000        0.00000092        0.00000260        0.00000006
     248         -0.230744        2.000000        0.00000552        0.00001491        0.00000038
     249         -0.230697        2.000000        0.00065480        0.00172362        0.00004436
     250         -0.229959        2.000000        0.00000536        0.00001428        0.00000035
     251         -0.229741        2.000000        0.00702862        0.01793185        0.00045396
     252         -0.228898        2.000000        0.00709772        0.02097686        0.00043801
     253         -0.227939        2.000000        0.00003171        0.00028023        0.00000031
     254         -0.227542        2.000000        0.00010337        0.00036401        0.00000957
     255         -0.227010        2.000000        0.00024477        0.00093606        0.00000766
     256         -0.226860        2.000000        0.00000004        0.00000013        0.00000000
     257         -0.226780        2.000000        0.00052591        0.00255438        0.00001109
     258         -0.226656        2.000000        0.00014599        0.00049993        0.00000665
     259         -0.226503        2.000000        0.00000000        0.00000001        0.00000000
     260         -0.226036        2.000000        0.00002781        0.00014846        0.00000270
     261         -0.225667        2.000000        0.00000000        0.00000000        0.00000000
     262         -0.225511        2.000000        0.00000092        0.00000277        0.00000008
     263         -0.224716        2.000000        0.01159424        0.03104149        0.00089986
     264         -0.224218        2.000000        0.00126986        0.00374465        0.00007028
     265         -0.223677        2.000000        0.00000212        0.00000681        0.00000017
     266         -0.223438        2.000000        0.00545864        0.01511597        0.00039997
     267         -0.223292        2.000000        0.00005593        0.00015787        0.00000435
     268         -0.223025        2.000000        0.00337247        0.00995398        0.00022656
     269         -0.222436        2.000000        0.00032342        0.00098153        0.00002295
     270         -0.222159        2.000000        0.00000000        0.00000002        0.00000000
     271         -0.221905        2.000000        0.00016551        0.00037256        0.00001585
     272         -0.221185        2.000000        0.00000004        0.00000016        0.00000000
     273         -0.220659        2.000000        0.00026465        0.00070062        0.00001857
     274         -0.219665        2.000000        0.00148889        0.00389954        0.00010761
     275         -0.219630        2.000000        0.00002923        0.00007560        0.00000214
     276         -0.218916        2.000000        0.00151625        0.00430298        0.00010045
     277         -0.218551        2.000000        0.00305049        0.00826209        0.00021380
     278         -0.218398        2.000000        0.00349738        0.00948956        0.00024411
     279         -0.218139        2.000000        0.00000281        0.00000791        0.00000019
     280         -0.217698        2.000000        0.00132909        0.00348626        0.00009749
     281         -0.217580        2.000000        0.00002384        0.00007835        0.00000125
     282         -0.217435        2.000000        0.00080654        0.00177274        0.00007636
     283         -0.216483        2.000000        0.00053192        0.00145704        0.00003892
     284         -0.216363        2.000000        0.00002110        0.00005821        0.00000154
     285         -0.216254        2.000000        0.00007708        0.00024833        0.00000481
     286         -0.215958        2.000000        0.00002891        0.00007623        0.00000225
     287         -0.215645        2.000000        0.00018044        0.00048078        0.00001399
     288         -0.215217        2.000000        0.00007218        0.00020613        0.00000549
     289         -0.214936        2.000000        0.00037282        0.00119977        0.00002510
     290         -0.214221        2.000000        0.00182602        0.00593413        0.00012488
     291         -0.213816        2.000000        0.00002952        0.00008874        0.00000236
     292         -0.213592        2.000000        0.00007205        0.00021027        0.00000530
     293         -0.213468        2.000000        0.01581986        0.04821064        0.00112501
     294         -0.213241        2.000000        0.00027344        0.00086475        0.00001911
     295         -0.213184        2.000000        0.00000899        0.00004635        0.00000031
     296         -0.212817        2.000000        0.00001298        0.00003480        0.00000110
     297         -0.212583        2.000000        0.00251254        0.00737544        0.00018490
     298         -0.212273        2.000000        0.00000589        0.00002016        0.00000051
     299         -0.211896        2.000000        0.00058698        0.00179458        0.00004257
     300         -0.211391        2.000000        0.00041372        0.00117507        0.00003210
     301         -0.211339        2.000000        0.00076127        0.00226878        0.00005446
     302         -0.211269        2.000000        0.00005547        0.00015072        0.00000399
     303         -0.211046        2.000000        0.00001439        0.00015591        0.00000071
     304         -0.210412        2.000000        0.00000744        0.00002967        0.00000052
     305         -0.210309        2.000000        0.00005434        0.00017212        0.00000425
     306         -0.210188        2.000000        0.00007660        0.00022103        0.00000591
     307         -0.210166        2.000000        0.00003136        0.00010073        0.00000253