# Projected DOS for list 37 of 3 atoms, at iteration step i = 0, E(Fermi) =     0.101540 a.u.
#     MO Eigenvalue [a.u.]      Occupation                 s                 p                 d
       1         -0.708367        2.000000        0.00000000        0.00000000        0.00000000
       2         -0.696979        2.000000        0.00000000        0.00000000        0.00000000
       3         -0.695301        2.000000        0.00000001        0.00000001        0.00000000
       4         -0.694902        2.000000        0.01238980        0.00745180        0.00017294
       5         -0.690081        2.000000        0.00000437        0.00000913        0.00000013
       6         -0.686805        2.000000        0.00000000        0.00000000        0.00000000
       7         -0.686571        2.000000        0.00000000        0.00000000        0.00000000
       8         -0.685003        2.000000        0.00000000        0.00000000        0.00000000
       9         -0.684036        2.000000        0.00000000        0.00000000        0.00000000
      10         -0.683920        2.000000        0.00024011        0.00020698        0.00000184
      11         -0.681735        2.000000        0.00000000        0.00000000        0.00000000
      12         -0.679408        2.000000        0.00000000        0.00000000        0.00000000
      13         -0.678932        2.000000        0.00002978        0.00002446        0.00000020
      14         -0.678381        2.000000        0.00000000        0.00000000        0.00000000
      15         -0.677963        2.000000        0.00000000        0.00000000        0.00000000
      16         -0.677540        2.000000        0.00000000        0.00000000        0.00000000
      17         -0.677381        2.000000        0.00000039        0.00000258        0.00000001
      18         -0.677246        2.000000        0.00000000        0.00000000        0.00000000
      19         -0.675827        2.000000        0.00000000        0.00000000        0.00000000
      20         -0.675724        2.000000        0.00005029        0.00001068        0.00000027
      21         -0.674932        2.000000        0.00031117        0.00020105        0.00000154
      22         -0.674380        2.000000        0.00000000        0.00000000        0.00000000
      23         -0.673393        2.000000        0.00000000        0.00000000        0.00000000
      24         -0.672924        2.000000        0.00013905        0.00009017        0.00000074
      25         -0.672289        2.000000        0.00000000        0.00000000        0.00000000
      26         -0.672227        2.000000        0.00000009        0.00000003        0.00000000
      27         -0.671275        2.000000        0.00012232        0.00004956        0.00000063
      28         -0.670770        2.000000        0.00000000        0.00000000        0.00000000
      29         -0.670400        2.000000        0.00000000        0.00000000        0.00000000
      30         -0.669922        2.000000        0.00000000        0.00000000        0.00000000
      31         -0.669606        2.000000        0.00016123        0.00003507        0.00000066
      32         -0.668947        2.000000        0.00000056        0.00000106        0.00000000
      33         -0.668931        2.000000        0.00000044        0.00000255        0.00000001
      34         -0.668431        2.000000        0.00000015        0.00000003        0.00000000
      35         -0.668008        2.000000        0.00000003        0.00000001        0.00000000
      36         -0.667083        2.000000        0.00000000        0.00000001        0.00000000
      37         -0.666996        2.000000        0.00026642        0.00008045        0.00000109
      38         -0.666939        2.000000        0.00000002        0.00000001        0.00000000
      39         -0.666646        2.000000        0.00000002        0.00000003        0.00000000
      40         -0.666363        2.000000        0.00000014        0.00000003        0.00000000
      41         -0.666281        2.000000        0.00024557        0.00007465        0.00000092
      42         -0.666129        2.000000        0.00000003        0.00000006        0.00000000
      43         -0.665867        2.000000        0.00000003        0.00000001        0.00000000
      44         -0.664404        2.000000        0.00002664        0.00001302        0.00000072
      45         -0.664061        2.000000        0.00001104        0.00000147        0.00000006
      46         -0.663948        2.000000        0.00074807        0.00009587        0.00000351
      47         -0.663550        2.000000        0.00000887        0.00000120        0.00000004
      48         -0.662943        2.000000        0.00037795        0.00010743        0.00000402
      49         -0.662627        2.000000        0.00000000        0.00000000        0.00000000
      50         -0.661965        2.000000        0.00000846        0.00000155        0.00000004
      51         -0.661528        2.000000        0.02514671        0.00543941        0.00012549
      52         -0.660900        2.000000        0.00111324        0.00027039        0.00000571
      53         -0.660166        2.000000        0.00000002        0.00000000        0.00000000
      54         -0.659683        2.000000        0.00025129        0.00014324        0.00000439
      55         -0.658835        2.000000        0.00000473        0.00000151        0.00000001
      56         -0.658814        2.000000        0.00260432        0.00040229        0.00000635
      57         -0.658691        2.000000        0.00450374        0.00288135        0.00004606
      58         -0.658084        2.000000        0.00080717        0.00018306        0.00000418
      59         -0.658073        2.000000        0.00244481        0.00054985        0.00001261
      60         -0.657975        2.000000        0.00000724        0.00000188        0.00000004
      61         -0.657678        2.000000        0.00000326        0.00000070        0.00000001
      62         -0.657592        2.000000        0.00000381        0.00000055        0.00000002
      63         -0.657226        2.000000        0.00271010        0.00041452        0.00000853
      64         -0.657087        2.000000        0.00000520        0.00000060        0.00000002
      65         -0.656742        2.000000        0.00005032        0.00000529        0.00000016
      66         -0.656449        2.000000        0.00004099        0.00000499        0.00000016
      67         -0.656215        2.000000        0.00016280        0.00002098        0.00000059
      68         -0.655700        2.000000        0.00018100        0.00003210        0.00000067
      69         -0.655174        2.000000        0.00031338        0.00044303        0.00000581
      70         -0.654827        2.000000        0.00000018        0.00000045        0.00000000
      71         -0.654660        2.000000        0.00007374        0.00018906        0.00000239
      72         -0.654406        2.000000        0.00000189        0.00000073        0.00000001
      73         -0.654250        2.000000        0.00000143        0.00000042        0.00000001
      74         -0.653619        2.000000        0.01094113        0.00137713        0.00003145
      75         -0.653105        2.000000        0.00017585        0.00005517        0.00000090
      76         -0.652904        2.000000        0.00503800        0.00074112        0.00001694
      77         -0.652612        2.000000        0.00008615        0.00001135        0.00000026
      78         -0.652411        2.000000        0.00000417        0.00000046        0.00000001
      79         -0.652213        2.000000        0.00040427        0.00004250        0.00000126
      80         -0.652083        2.000000        0.00053171        0.00012504        0.00000191
      81         -0.651807        2.000000        0.00001054        0.00001177        0.00000016
      82         -0.651706        2.000000        0.00637031        0.00093613        0.00001913
      83         -0.651237        2.000000        0.00034626        0.00005717        0.00000118
      84         -0.651053        2.000000        0.00069276        0.00007645        0.00000216
      85         -0.650411        2.000000        0.00004990        0.00022294        0.00000098
      86         -0.650326        2.000000        0.00016564        0.00005640        0.00000111
      87         -0.650219        2.000000        0.00003045        0.00001889        0.00000013
      88         -0.650130        2.000000        0.00032747        0.00013133        0.00000138
      89         -0.649849        2.000000        0.00029763        0.00019534        0.00000129
      90         -0.649510        2.000000        0.00003457        0.00001307        0.00000013
      91         -0.648737        2.000000        0.00010802        0.00002178        0.00000042
      92         -0.648608        2.000000        0.00108598        0.00042402        0.00000486
      93         -0.648509        2.000000        0.00004628        0.00001496        0.00000019
      94         -0.648091        2.000000        0.00231072        0.00056463        0.00000850
      95         -0.647956        2.000000        0.00055315        0.00014921        0.00000281
      96         -0.647875        2.000000        0.00002015        0.00000354        0.00000007
      97         -0.647628        2.000000        0.00000978        0.00000167        0.00000003
      98         -0.647248        2.000000        0.00000019        0.00000034        0.00000000
      99         -0.646997        2.000000        0.00110805        0.00023098        0.00000467
     100         -0.646893        2.000000        0.00216086        0.00035855        0.00000647
     101         -0.646794        2.000000        0.00000007        0.00000016        0.00000000
     102         -0.645843        2.000000        0.00021816        0.00011613        0.00000089
     103         -0.645519        2.000000        0.00003672        0.00003673        0.00000023
     104         -0.645232        2.000000        0.00001773        0.00004315        0.00000028
     105         -0.644964        2.000000        0.00000331        0.00000254        0.00000002
     106         -0.644451        2.000000        0.00034729        0.00008550        0.00000106
     107         -0.644170        2.000000        0.00000216        0.00000148        0.00000002
     108         -0.643891        2.000000        0.00002889        0.00000771        0.00000010
     109         -0.643862        2.000000        0.00009603        0.00001745        0.00000024
     110         -0.643478        2.000000        0.00004046        0.00000652        0.00000010
     111         -0.643325        2.000000        0.00019656        0.00003673        0.00000051
     112         -0.642934        2.000000        0.00827360        0.00169804        0.00001757
     113         -0.642899        2.000000        0.00000918        0.00000180        0.00000002
     114         -0.642460        2.000000        0.00001537        0.00000239        0.00000003
     115         -0.642175        2.000000        0.03802417        0.00585674        0.00008253
     116         -0.642120        2.000000        0.00012251        0.00001896        0.00000030
     117         -0.641851        2.000000        0.00419625        0.00067641        0.00000865
     118         -0.641683        2.000000        0.00073800        0.00011801        0.00000174
     119         -0.641305        2.000000        0.00019582        0.00003306        0.00000048
     120         -0.641072        2.000000        0.00002066        0.00000718        0.00000022
     121         -0.640960        2.000000        0.00138506        0.00033731        0.00000407
     122         -0.640793        2.000000        0.00003561        0.00008761        0.00000082
     123         -0.640578        2.000000        0.00000230        0.00001950        0.00000013
     124         -0.640464        2.000000        0.00024126        0.00010287        0.00000198
     125         -0.640169        2.000000        0.00517783        0.00078775        0.00001449
     126         -0.639736        2.000000        0.00119228        0.00018231        0.00000301
     127         -0.639499        2.000000        0.00012999        0.00010727        0.00000091
     128         -0.639154        2.000000        0.00029114        0.00009352        0.00000048
     129         -0.639060        2.000000        0.00008258        0.00016574        0.00000093
     130         -0.638976        2.000000        0.00022489        0.00012538        0.00000078
     131         -0.638593        2.000000        0.00295638        0.00059631        0.00000584
     132         -0.638261        2.000000        0.00024714        0.00004642        0.00000049
     133         -0.638059        2.000000        0.00003341        0.00001255        0.00000009
     134         -0.637912        2.000000        0.00158636        0.00029395        0.00000321
     135         -0.637762        2.000000        0.00050511        0.00009612        0.00000100
     136         -0.637584        2.000000        0.16789668        0.03272699        0.00032732
     137         -0.636804        2.000000        0.00007313        0.00001569        0.00000014
     138         -0.636640        2.000000        0.00368066        0.00080426        0.00000709
     139         -0.636429        2.000000        0.02175356        0.00476863        0.00004213
     140         -0.635515        2.000000        0.01166547        0.00277054        0.00002403
     141         -0.634989        2.000000        0.00023198        0.00015522        0.00000137
     142         -0.634462        2.000000        0.00002683        0.00002261        0.00000013
     143         -0.634132        2.000000        0.00126038        0.00031199        0.00000213
     144         -0.633763        2.000000        0.03521905        0.00913804        0.00005821
     145         -0.633531        2.000000        0.00002176        0.00000567        0.00000004
     146         -0.632585        2.000000        0.00131344        0.00034245        0.00000214
     147         -0.632333        2.000000        0.00093900        0.00029003        0.00000192
     148         -0.632031        2.000000        0.14600449        0.03759229        0.00022958
     149         -0.631841        2.000000        0.00029299        0.00013560        0.00000023
     150         -0.631318        2.000000        0.00016019        0.00004412        0.00000052
     151         -0.630640        2.000000        0.00002538        0.00003416        0.00000051
     152         -0.630519        2.000000        0.00000868        0.00000310        0.00000003
     153         -0.630490        2.000000        0.00000133        0.00000035        0.00000000
     154         -0.629959        2.000000        0.00014785        0.00024538        0.00000095
     155         -0.629452        2.000000        0.00084322        0.00043881        0.00000098
     156         -0.629210        2.000000        0.00000522        0.00000303        0.00000002
     157         -0.628856        2.000000        0.01790580        0.00557515        0.00002863
     158         -0.628516        2.000000        0.00000488        0.00003357        0.00000038
     159         -0.628511        2.000000        0.00048162        0.00009019        0.00000392
     160         -0.628382        2.000000        0.00147830        0.00028533        0.00000641
     161         -0.628242        2.000000        0.00044676        0.00101190        0.00000573
     162         -0.628026        2.000000        0.00207281        0.00151806        0.00000970
     163         -0.627712        2.000000        0.00053826        0.00029062        0.00000228
     164         -0.627438        2.000000        0.00015782        0.00004499        0.00000040
     165         -0.627281        2.000000        0.00016181        0.00012521        0.00000103
     166         -0.626983        2.000000        0.00000877        0.00005506        0.00000073
     167         -0.626804        2.000000        0.00634051        0.00248812        0.00001044
     168         -0.626588        2.000000        0.00001128        0.00002758        0.00000023
     169         -0.626019        2.000000        0.06822269        0.02279703        0.00009222
     170         -0.625843        2.000000        0.00001675        0.00004130        0.00000029
     171         -0.625019        2.000000        0.00000584        0.00000435        0.00000001
     172         -0.624831        2.000000        0.00019741        0.00064624        0.00000583
     173         -0.624166        2.000000        0.00111953        0.00566996        0.00004962
     174         -0.623906        2.000000        0.00001740        0.00008294        0.00000073
     175         -0.623799        2.000000        0.00008399        0.00050836        0.00000449
     176         -0.623716        2.000000        0.00001161        0.00005593        0.00000049
     177         -0.623382        2.000000        0.00025961        0.00095054        0.00000867
     178         -0.623067        2.000000        0.00000022        0.00000061        0.00000001
     179         -0.622801        2.000000        0.00006369        0.00015686        0.00000136
     180         -0.622617        2.000000        0.00052429        0.00114606        0.00001042
     181         -0.622499        2.000000        0.00005324        0.00010798        0.00000099
     182         -0.621672        2.000000        0.00000304        0.00000812        0.00000008
     183         -0.621151        2.000000        0.00000245        0.00001311        0.00000012
     184         -0.620781        2.000000        0.00000643        0.00003742        0.00000035
     185         -0.620579        2.000000        0.00004655        0.00004103        0.00000029
     186         -0.619930        2.000000        0.00002591        0.00001406        0.00000007
     187         -0.618694        2.000000        0.00000095        0.00000047        0.00000000
     188         -0.618461        2.000000        0.00096561        0.00046931        0.00000111
     189         -0.618211        2.000000        0.00001500        0.00000774        0.00000003
     190         -0.617957        2.000000        0.00047074        0.00025912        0.00000121
     191         -0.617770        2.000000        0.00022383        0.00011188        0.00000028
     192         -0.617636        2.000000        0.00057868        0.00033439        0.00000180
     193         -0.617200        2.000000        0.00000046        0.00000259        0.00000003
     194         -0.616810        2.000000        0.00061104        0.00042794        0.00000264
     195         -0.615618        2.000000        0.02353940        0.01288263        0.00005231
     196         -0.615377        2.000000        0.00032767        0.00017750        0.00000067
     197         -0.615228        2.000000        0.02479915        0.01335124        0.00004906
     198         -0.614941        2.000000        0.00000404        0.00000216        0.00000001
     199         -0.613862        2.000000        0.00014254        0.00007884        0.00000018
     200         -0.613167        2.000000        0.00000921        0.00000566        0.00000007
     201         -0.612937        2.000000        0.00000000        0.00000000        0.00000000
     202         -0.612465        2.000000        0.00000000        0.00000003        0.00000000
     203         -0.611371        2.000000        0.00562752        0.00322964        0.00000399
     204         -0.611273        2.000000        0.05883234        0.03390909        0.00004140
     205         -0.610903        2.000000        0.00224500        0.00131625        0.00000148
     206         -0.609912        2.000000        0.00001487        0.00000903        0.00000001
     207         -0.609442        2.000000        0.00000010        0.00000007        0.00000000
     208         -0.609149        2.000000        0.00002547        0.00001543        0.00000002
     209         -0.608882        2.000000        0.00004750        0.00002544        0.00000004
     210         -0.608562        2.000000        0.00197541        0.00130346        0.00000264
     211         -0.608012        2.000000        0.00001783        0.00001112        0.00000001
     212         -0.607014        2.000000        0.00001883        0.00001324        0.00000001
     213         -0.606300        2.000000        0.00000308        0.00000228        0.00000000
     214         -0.605948        2.000000        0.00000000        0.00000000        0.00000000
     215         -0.605403        2.000000        0.00000004        0.00000003        0.00000000
     216         -0.604664        2.000000        0.00000135        0.00000098        0.00000000
     217         -0.604080        2.000000        0.00000352        0.00000281        0.00000000
     218         -0.603538        2.000000        0.00000550        0.00000423        0.00000000
     219         -0.603145        2.000000        0.00000157        0.00000132        0.00000000
     220         -0.602213        2.000000        0.00000267        0.00000215        0.00000001
     221         -0.601871        2.000000        0.00000002        0.00000006        0.00000000
     222         -0.600521        2.000000        0.00000000        0.00000000        0.00000000
     223         -0.599848        2.000000        0.00000087        0.00000106        0.00000001
     224         -0.598111        2.000000        0.00000201        0.00000203        0.00000000
     225         -0.597286        2.000000        0.00000027        0.00000029        0.00000000
     226         -0.597121        2.000000        0.00000010        0.00000011        0.00000000
     227         -0.595585        2.000000        0.00000001        0.00000001        0.00000000
     228         -0.591103        2.000000        0.00000000        0.00000000        0.00000000
     229         -0.582585        2.000000        0.00000000        0.00000000        0.00000000
     230         -0.576283        2.000000        0.00000000        0.00000000        0.00000000
     231         -0.258156        2.000000        0.00000000        0.00000000        0.00000000
     232         -0.253473        2.000000        0.00000000        0.00000000        0.00000000
     233         -0.246233        2.000000        0.00000000        0.00000000        0.00000000
     234         -0.244651        2.000000        0.00000000        0.00000000        0.00000000
     235         -0.243092        2.000000        0.00000000        0.00000001        0.00000000
     236         -0.242544        2.000000        0.00225974        0.01791237        0.00068959
     237         -0.241048        2.000000        0.00000000        0.00000003        0.00000000
     238         -0.240546        2.000000        0.00000000        0.00000000        0.00000000
     239         -0.237982        2.000000        0.00000000        0.00000000        0.00000000
     240         -0.237798        2.000000        0.00000494        0.00001759        0.00000055
     241         -0.236566        2.000000        0.00000152        0.00001254        0.00000051
     242         -0.235920        2.000000        0.00000072        0.00000608        0.00000025
     243         -0.233145        2.000000        0.00003841        0.00013295        0.00000306
     244         -0.232785        2.000000        0.00000000        0.00000002        0.00000000
     245         -0.232224        2.000000        0.00000001        0.00000006        0.00000000
     246         -0.232174        2.000000        0.00224284        0.00857096        0.00016208
     247         -0.232015        2.000000        0.00200450        0.00764040        0.00014419
     248         -0.230744        2.000000        0.00089725        0.00310637        0.00006241
     249         -0.230697        2.000000        0.00000212        0.00000731        0.00000015
     250         -0.229959        2.000000        0.00018339        0.00066544        0.00001283
     251         -0.229741        2.000000        0.00000007        0.00000026        0.00000001
     252         -0.228898        2.000000        0.00000001        0.00000003        0.00000000
     253         -0.227939        2.000000        0.00000000        0.00000000        0.00000000
     254         -0.227542        2.000000        0.00000000        0.00000000        0.00000000
     255         -0.227010        2.000000        0.00000000        0.00000000        0.00000000
     256         -0.226860        2.000000        0.00000144        0.00001723        0.00000016
     257         -0.226780        2.000000        0.00000000        0.00000000        0.00000000
     258         -0.226656        2.000000        0.00000000        0.00000000        0.00000000
     259         -0.226503        2.000000        0.00003563        0.00020962        0.00000411
     260         -0.226036        2.000000        0.00000000        0.00000000        0.00000000
     261         -0.225667        2.000000        0.00001497        0.00014578        0.00000143
     262         -0.225511        2.000000        0.00000031        0.00000227        0.00000003
     263         -0.224716        2.000000        0.00000001        0.00000004        0.00000000
     264         -0.224218        2.000000        0.00000000        0.00000001        0.00000000
     265         -0.223677        2.000000        0.00016414        0.00053017        0.00001274
     266         -0.223438        2.000000        0.00000030        0.00000104        0.00000003
     267         -0.223292        2.000000        0.00000002        0.00000011        0.00000000
     268         -0.223025        2.000000        0.00000008        0.00000033        0.00000001
     269         -0.222436        2.000000        0.00000003        0.00000017        0.00000000
     270         -0.222159        2.000000        0.00000580        0.00003976        0.00000043
     271         -0.221905        2.000000        0.00000001        0.00000007        0.00000000
     272         -0.221185        2.000000        0.00001673        0.00004394        0.00000132
     273         -0.220659        2.000000        0.00000000        0.00000005        0.00000000
     274         -0.219665        2.000000        0.00000314        0.00000610        0.00000018
     275         -0.219630        2.000000        0.00013162        0.00025846        0.00000830
     276         -0.218916        2.000000        0.00000036        0.00000091        0.00000003
     277         -0.218551        2.000000        0.00004451        0.00010343        0.00000342
     278         -0.218398        2.000000        0.00002587        0.00004987        0.00000191
     279         -0.218139        2.000000        0.00036212        0.00105909        0.00002099
     280         -0.217698        2.000000        0.00000912        0.00002495        0.00000041
     281         -0.217580        2.000000        0.00082526        0.00243326        0.00004480
     282         -0.217435        2.000000        0.00002815        0.00008836        0.00000173
     283         -0.216483        2.000000        0.00000107        0.00000293        0.00000006
     284         -0.216363        2.000000        0.00027976        0.00082588        0.00001192
     285         -0.216254        2.000000        0.00000166        0.00000477        0.00000007
     286         -0.215958        2.000000        0.00005090        0.00025690        0.00000420
     287         -0.215645        2.000000        0.00006831        0.00021886        0.00000487
     288         -0.215217        2.000000        0.00000008        0.00000020        0.00000001
     289         -0.214936        2.000000        0.00000001        0.00000002        0.00000000
     290         -0.214221        2.000000        0.00000019        0.00000051        0.00000001
     291         -0.213816        2.000000        0.00000046        0.00000125        0.00000002
     292         -0.213592        2.000000        0.00047289        0.00128681        0.00002330
     293         -0.213468        2.000000        0.00000024        0.00000116        0.00000002
     294         -0.213241        2.000000        0.00000001        0.00000011        0.00000000
     295         -0.213184        2.000000        0.00007997        0.00020529        0.00000426
     296         -0.212817        2.000000        0.00014637        0.00073940        0.00000857
     297         -0.212583        2.000000        0.00000040        0.00000145        0.00000001
     298         -0.212273        2.000000        0.00004863        0.00015812        0.00000316
     299         -0.211896        2.000000        0.00000008        0.00000026        0.00000001
     300         -0.211391        2.000000        0.00000637        0.00003085        0.00000083
     301         -0.211339        2.000000        0.00000209        0.00001265        0.00000030
     302         -0.211269        2.000000        0.00000159        0.00000831        0.00000010
     303         -0.211046        2.000000        0.00000877        0.00005465        0.00000052
     304         -0.210412        2.000000        0.00000448        0.00003568        0.00000035
     305         -0.210309        2.000000        0.00002190        0.00013517        0.00000086
     306         -0.210188        2.000000        0.00004118        0.00015510        0.00000209
     307         -0.210166        2.000000        0.00002551        0.00009840        0.00000112