# Projected DOS for list 48 of 3 atoms, at iteration step i = 0, E(Fermi) =     0.101540 a.u.
#     MO Eigenvalue [a.u.]      Occupation                 s                 p                 d
       1         -0.708367        2.000000        0.00000000        0.00000000        0.00000000
       2         -0.696979        2.000000        0.00000000        0.00000000        0.00000000
       3         -0.695301        2.000000        0.00000003        0.00000001        0.00000000
       4         -0.694902        2.000000        0.02689166        0.01171411        0.00032053
       5         -0.690081        2.000000        0.00002683        0.00005724        0.00000051
       6         -0.686805        2.000000        0.00000000        0.00000000        0.00000000
       7         -0.686571        2.000000        0.00000000        0.00000000        0.00000000
       8         -0.685003        2.000000        0.00000000        0.00000000        0.00000000
       9         -0.684036        2.000000        0.00000000        0.00000000        0.00000000
      10         -0.683920        2.000000        0.00000192        0.00000222        0.00000002
      11         -0.681735        2.000000        0.00000000        0.00000000        0.00000000
      12         -0.679408        2.000000        0.00000000        0.00000000        0.00000000
      13         -0.678932        2.000000        0.00001190        0.00000444        0.00000007
      14         -0.678381        2.000000        0.00000000        0.00000000        0.00000000
      15         -0.677963        2.000000        0.00000000        0.00000000        0.00000000
      16         -0.677540        2.000000        0.00000000        0.00000000        0.00000000
      17         -0.677381        2.000000        0.00004151        0.00001057        0.00000021
      18         -0.677246        2.000000        0.00000000        0.00000000        0.00000000
      19         -0.675827        2.000000        0.00000000        0.00000000        0.00000000
      20         -0.675724        2.000000        0.00001614        0.00002273        0.00000001
      21         -0.674932        2.000000        0.00012319        0.00024356        0.00000059
      22         -0.674380        2.000000        0.00000000        0.00000000        0.00000000
      23         -0.673393        2.000000        0.00000000        0.00000000        0.00000000
      24         -0.672924        2.000000        0.00000511        0.00000146        0.00000000
      25         -0.672289        2.000000        0.00000000        0.00000000        0.00000000
      26         -0.672227        2.000000        0.00000000        0.00000000        0.00000000
      27         -0.671275        2.000000        0.00000038        0.00000144        0.00000001
      28         -0.670770        2.000000        0.00000000        0.00000000        0.00000000
      29         -0.670400        2.000000        0.00000000        0.00000000        0.00000000
      30         -0.669922        2.000000        0.00000000        0.00000000        0.00000000
      31         -0.669606        2.000000        0.00002093        0.00000288        0.00000011
      32         -0.668947        2.000000        0.00003926        0.00000938        0.00000014
      33         -0.668931        2.000000        0.00006404        0.00001569        0.00000023
      34         -0.668431        2.000000        0.00000000        0.00000000        0.00000000
      35         -0.668008        2.000000        0.00000000        0.00000000        0.00000000
      36         -0.667083        2.000000        0.00000000        0.00000000        0.00000000
      37         -0.666996        2.000000        0.00001856        0.00000217        0.00000011
      38         -0.666939        2.000000        0.00000000        0.00000000        0.00000000
      39         -0.666646        2.000000        0.00000000        0.00000001        0.00000000
      40         -0.666363        2.000000        0.00000026        0.00000002        0.00000000
      41         -0.666281        2.000000        0.00061653        0.00004543        0.00000142
      42         -0.666129        2.000000        0.00000036        0.00000003        0.00000000
      43         -0.665867        2.000000        0.00000001        0.00000000        0.00000000
      44         -0.664404        2.000000        0.00000782        0.00001928        0.00000020
      45         -0.664061        2.000000        0.00000015        0.00000012        0.00000000
      46         -0.663948        2.000000        0.00000550        0.00000222        0.00000004
      47         -0.663550        2.000000        0.00000010        0.00000005        0.00000000
      48         -0.662943        2.000000        0.00083650        0.00016236        0.00000368
      49         -0.662627        2.000000        0.00000000        0.00000000        0.00000000
      50         -0.661965        2.000000        0.00000064        0.00000007        0.00000000
      51         -0.661528        2.000000        0.00335876        0.00040603        0.00000656
      52         -0.660900        2.000000        0.00007583        0.00000830        0.00000018
      53         -0.660166        2.000000        0.00000000        0.00000000        0.00000000
      54         -0.659683        2.000000        0.02882468        0.00358852        0.00005952
      55         -0.658835        2.000000        0.00074306        0.00009739        0.00000145
      56         -0.658814        2.000000        0.18065074        0.02367165        0.00035580
      57         -0.658691        2.000000        0.01404083        0.00186019        0.00002681
      58         -0.658084        2.000000        0.00224247        0.00029362        0.00000476
      59         -0.658073        2.000000        0.00683528        0.00089486        0.00001452
      60         -0.657975        2.000000        0.00006653        0.00000828        0.00000016
      61         -0.657678        2.000000        0.00000960        0.00000133        0.00000002
      62         -0.657592        2.000000        0.00000339        0.00000047        0.00000001
      63         -0.657226        2.000000        0.00481551        0.00081489        0.00000832
      64         -0.657087        2.000000        0.00000255        0.00000039        0.00000000
      65         -0.656742        2.000000        0.00000733        0.00000173        0.00000001
      66         -0.656449        2.000000        0.00001168        0.00000163        0.00000003
      67         -0.656215        2.000000        0.00002987        0.00000591        0.00000004
      68         -0.655700        2.000000        0.00002124        0.00000974        0.00000002
      69         -0.655174        2.000000        0.00077102        0.00089090        0.00000495
      70         -0.654827        2.000000        0.00000160        0.00000027        0.00000001
      71         -0.654660        2.000000        0.00066325        0.00009027        0.00000454
      72         -0.654406        2.000000        0.00000048        0.00000043        0.00000001
      73         -0.654250        2.000000        0.00000031        0.00000019        0.00000001
      74         -0.653619        2.000000        0.00046670        0.00027216        0.00000110
      75         -0.653105        2.000000        0.00025708        0.00015316        0.00000442
      76         -0.652904        2.000000        0.00013915        0.00037630        0.00000439
      77         -0.652612        2.000000        0.00000437        0.00000413        0.00000022
      78         -0.652411        2.000000        0.00000015        0.00000070        0.00000003
      79         -0.652213        2.000000        0.00040417        0.00434015        0.00009631
      80         -0.652083        2.000000        0.00020403        0.00221336        0.00003948
      81         -0.651807        2.000000        0.00005906        0.00031164        0.00000719
      82         -0.651706        2.000000        0.00071007        0.00018258        0.00000884
      83         -0.651237        2.000000        0.00026971        0.00063522        0.00000505
      84         -0.651053        2.000000        0.00015999        0.00034555        0.00000270
      85         -0.650411        2.000000        0.00818601        0.00702788        0.00010005
      86         -0.650326        2.000000        0.00817891        0.00642098        0.00009767
      87         -0.650219        2.000000        0.00000293        0.00001299        0.00000032
      88         -0.650130        2.000000        0.00087278        0.00059625        0.00001016
      89         -0.649849        2.000000        0.00001622        0.00005787        0.00000086
      90         -0.649510        2.000000        0.00000559        0.00000470        0.00000002
      91         -0.648737        2.000000        0.00001589        0.00012157        0.00000215
      92         -0.648608        2.000000        0.00094636        0.00087791        0.00000336
      93         -0.648509        2.000000        0.00002975        0.00001551        0.00000002
      94         -0.648091        2.000000        0.00077504        0.00023403        0.00000612
      95         -0.647956        2.000000        0.02492640        0.00791950        0.00013123
      96         -0.647875        2.000000        0.00000363        0.00000243        0.00000010
      97         -0.647628        2.000000        0.00000126        0.00000119        0.00000005
      98         -0.647248        2.000000        0.00000162        0.00000083        0.00000000
      99         -0.646997        2.000000        0.00014054        0.00007803        0.00000471
     100         -0.646893        2.000000        0.00002050        0.00002925        0.00000021
     101         -0.646794        2.000000        0.00002159        0.00000644        0.00000023
     102         -0.645843        2.000000        0.00000912        0.00012579        0.00000307
     103         -0.645519        2.000000        0.00000439        0.00001012        0.00000011
     104         -0.645232        2.000000        0.00000106        0.00000898        0.00000018
     105         -0.644964        2.000000        0.00000235        0.00000275        0.00000002
     106         -0.644451        2.000000        0.00016439        0.00010223        0.00000016
     107         -0.644170        2.000000        0.00000126        0.00000345        0.00000004
     108         -0.643891        2.000000        0.00042986        0.00015664        0.00000438
     109         -0.643862        2.000000        0.00002948        0.00003307        0.00000105
     110         -0.643478        2.000000        0.00004398        0.00001077        0.00000029
     111         -0.643325        2.000000        0.00014777        0.00003446        0.00000120
     112         -0.642934        2.000000        0.00121393        0.00035915        0.00000196
     113         -0.642899        2.000000        0.00000114        0.00000037        0.00000000
     114         -0.642460        2.000000        0.00000496        0.00000142        0.00000001
     115         -0.642175        2.000000        0.00845622        0.00227299        0.00001593
     116         -0.642120        2.000000        0.00000388        0.00000109        0.00000006
     117         -0.641851        2.000000        0.00221360        0.00069202        0.00000220
     118         -0.641683        2.000000        0.00007831        0.00002013        0.00000019
     119         -0.641305        2.000000        0.00004487        0.00001164        0.00000010
     120         -0.641072        2.000000        0.00278280        0.00067653        0.00000732
     121         -0.640960        2.000000        0.00010343        0.00003627        0.00000007
     122         -0.640793        2.000000        0.03462685        0.00815722        0.00010126
     123         -0.640578        2.000000        0.00364162        0.00084367        0.00001118
     124         -0.640464        2.000000        0.01302706        0.00310361        0.00003575
     125         -0.640169        2.000000        0.00827679        0.00185825        0.00002714
     126         -0.639736        2.000000        0.00205961        0.00048962        0.00000654
     127         -0.639499        2.000000        0.00102407        0.00021156        0.00000451
     128         -0.639154        2.000000        0.00026889        0.00010438        0.00000024
     129         -0.639060        2.000000        0.00077040        0.00033205        0.00000034
     130         -0.638976        2.000000        0.00006264        0.00002576        0.00000005
     131         -0.638593        2.000000        0.00000502        0.00000901        0.00000020
     132         -0.638261        2.000000        0.00000079        0.00000039        0.00000000
     133         -0.638059        2.000000        0.00000171        0.00001326        0.00000028
     134         -0.637912        2.000000        0.00000341        0.00001625        0.00000044
     135         -0.637762        2.000000        0.00000045        0.00000113        0.00000004
     136         -0.637584        2.000000        0.00021656        0.00018572        0.00000197
     137         -0.636804        2.000000        0.00000051        0.00000037        0.00000000
     138         -0.636640        2.000000        0.00160669        0.00108980        0.00000303
     139         -0.636429        2.000000        0.00087626        0.00037127        0.00000168
     140         -0.635515        2.000000        0.00004665        0.00000916        0.00000083
     141         -0.634989        2.000000        0.00000041        0.00000216        0.00000008
     142         -0.634462        2.000000        0.00017225        0.00014559        0.00000041
     143         -0.634132        2.000000        0.00000946        0.00000757        0.00000002
     144         -0.633763        2.000000        0.00033960        0.00023380        0.00000048
     145         -0.633531        2.000000        0.00000046        0.00000037        0.00000000
     146         -0.632585        2.000000        0.00002258        0.00001978        0.00000005
     147         -0.632333        2.000000        0.00017568        0.00006934        0.00000018
     148         -0.632031        2.000000        0.00190873        0.00104721        0.00000258
     149         -0.631841        2.000000        0.01108298        0.00451323        0.00000992
     150         -0.631318        2.000000        0.00103311        0.00044926        0.00000080
     151         -0.630640        2.000000        0.00587730        0.00273898        0.00000422
     152         -0.630519        2.000000        0.00023959        0.00012182        0.00000016
     153         -0.630490        2.000000        0.00000088        0.00000081        0.00000000
     154         -0.629959        2.000000        0.00243410        0.00110012        0.00000186
     155         -0.629452        2.000000        0.00355340        0.00155274        0.00000331
     156         -0.629210        2.000000        0.00001989        0.00000795        0.00000002
     157         -0.628856        2.000000        0.00193726        0.00083383        0.00000209
     158         -0.628516        2.000000        0.01922071        0.00775193        0.00002407
     159         -0.628511        2.000000        0.12686874        0.05092934        0.00016024
     160         -0.628382        2.000000        0.13620857        0.05424478        0.00017750
     161         -0.628242        2.000000        0.00505106        0.00200765        0.00000674
     162         -0.628026        2.000000        0.01680440        0.00655788        0.00002385
     163         -0.627712        2.000000        0.00695306        0.00264736        0.00001072
     164         -0.627438        2.000000        0.00058936        0.00022107        0.00000100
     165         -0.627281        2.000000        0.00140593        0.00052196        0.00000241
     166         -0.626983        2.000000        0.00207456        0.00074153        0.00000395
     167         -0.626804        2.000000        0.00514540        0.00190293        0.00000903
     168         -0.626588        2.000000        0.00001196        0.00000380        0.00000002
     169         -0.626019        2.000000        0.00179765        0.00064029        0.00000355
     170         -0.625843        2.000000        0.00001361        0.00000496        0.00000003
     171         -0.625019        2.000000        0.00001508        0.00000490        0.00000004
     172         -0.624831        2.000000        0.00004828        0.00001841        0.00000015
     173         -0.624166        2.000000        0.00001288        0.00000292        0.00000004
     174         -0.623906        2.000000        0.00000505        0.00000148        0.00000001
     175         -0.623799        2.000000        0.00265621        0.00081348        0.00000874
     176         -0.623716        2.000000        0.00001128        0.00000355        0.00000004
     177         -0.623382        2.000000        0.00015123        0.00004800        0.00000044
     178         -0.623067        2.000000        0.00000002        0.00000001        0.00000000
     179         -0.622801        2.000000        0.00002389        0.00000820        0.00000008
     180         -0.622617        2.000000        0.00022334        0.00007035        0.00000072
     181         -0.622499        2.000000        0.00002268        0.00000723        0.00000007
     182         -0.621672        2.000000        0.00002597        0.00000826        0.00000011
     183         -0.621151        2.000000        0.00002484        0.00000785        0.00000011
     184         -0.620781        2.000000        0.00003275        0.00001046        0.00000015
     185         -0.620579        2.000000        0.00005660        0.00001930        0.00000026
     186         -0.619930        2.000000        0.00000278        0.00000107        0.00000001
     187         -0.618694        2.000000        0.00000006        0.00000002        0.00000000
     188         -0.618461        2.000000        0.00017118        0.00004860        0.00000101
     189         -0.618211        2.000000        0.00000052        0.00000015        0.00000000
     190         -0.617957        2.000000        0.00000171        0.00000077        0.00000001
     191         -0.617770        2.000000        0.00008569        0.00002472        0.00000053
     192         -0.617636        2.000000        0.00022606        0.00006144        0.00000127
     193         -0.617200        2.000000        0.00004729        0.00001248        0.00000030
     194         -0.616810        2.000000        0.00093936        0.00025998        0.00000595
     195         -0.615618        2.000000        0.00020107        0.00005470        0.00000107
     196         -0.615377        2.000000        0.00000010        0.00000015        0.00000000
     197         -0.615228        2.000000        0.00037728        0.00010065        0.00000214
     198         -0.614941        2.000000        0.00000000        0.00000000        0.00000000
     199         -0.613862        2.000000        0.00052440        0.00016726        0.00000406
     200         -0.613167        2.000000        0.00070664        0.00021047        0.00000566
     201         -0.612937        2.000000        0.00000028        0.00000008        0.00000000
     202         -0.612465        2.000000        0.00007367        0.00002196        0.00000063
     203         -0.611371        2.000000        0.00000109        0.00000162        0.00000003
     204         -0.611273        2.000000        0.00005444        0.00002666        0.00000055
     205         -0.610903        2.000000        0.00000436        0.00000184        0.00000005
     206         -0.609912        2.000000        0.00000008        0.00000004        0.00000000
     207         -0.609442        2.000000        0.00000001        0.00000000        0.00000000
     208         -0.609149        2.000000        0.00000059        0.00000024        0.00000001
     209         -0.608882        2.000000        0.00002691        0.00000919        0.00000026
     210         -0.608562        2.000000        0.00000491        0.00000227        0.00000007
     211         -0.608012        2.000000        0.00000033        0.00000012        0.00000000
     212         -0.607014        2.000000        0.00000113        0.00000057        0.00000002
     213         -0.606300        2.000000        0.00000454        0.00000154        0.00000006
     214         -0.605948        2.000000        0.00000024        0.00000008        0.00000000
     215         -0.605403        2.000000        0.00000009        0.00000003        0.00000000
     216         -0.604664        2.000000        0.00000001        0.00000001        0.00000000
     217         -0.604080        2.000000        0.00000960        0.00000342        0.00000013
     218         -0.603538        2.000000        0.00002213        0.00000792        0.00000031
     219         -0.603145        2.000000        0.00000034        0.00000018        0.00000001
     220         -0.602213        2.000000        0.00006735        0.00002451        0.00000098
     221         -0.601871        2.000000        0.00000602        0.00000226        0.00000009
     222         -0.600521        2.000000        0.00000168        0.00000064        0.00000003
     223         -0.599848        2.000000        0.00005921        0.00002343        0.00000097
     224         -0.598111        2.000000        0.00000604        0.00000255        0.00000012
     225         -0.597286        2.000000        0.00000006        0.00000006        0.00000000
     226         -0.597121        2.000000        0.00000679        0.00000272        0.00000013
     227         -0.595585        2.000000        0.00000054        0.00000022        0.00000001
     228         -0.591103        2.000000        0.00000000        0.00000000        0.00000000
     229         -0.582585        2.000000        0.00000003        0.00000001        0.00000000
     230         -0.576283        2.000000        0.00000000        0.00000000        0.00000000
     231         -0.258156        2.000000        0.00000000        0.00000000        0.00000000
     232         -0.253473        2.000000        0.00000000        0.00000000        0.00000000
     233         -0.246233        2.000000        0.00000000        0.00000001        0.00000000
     234         -0.244651        2.000000        0.00000000        0.00000000        0.00000000
     235         -0.243092        2.000000        0.00000000        0.00000002        0.00000000
     236         -0.242544        2.000000        0.00548199        0.04881619        0.00111988
     237         -0.241048        2.000000        0.00000001        0.00000007        0.00000000
     238         -0.240546        2.000000        0.00000000        0.00000000        0.00000000
     239         -0.237982        2.000000        0.00000000        0.00000000        0.00000000
     240         -0.237798        2.000000        0.00000327        0.00000848        0.00000037
     241         -0.236566        2.000000        0.00000424        0.00002454        0.00000044
     242         -0.235920        2.000000        0.00000253        0.00001392        0.00000023
     243         -0.233145        2.000000        0.00008898        0.00024115        0.00000513
     244         -0.232785        2.000000        0.00000000        0.00000003        0.00000000
     245         -0.232224        2.000000        0.00000000        0.00000002        0.00000000
     246         -0.232174        2.000000        0.00000081        0.00000532        0.00000012
     247         -0.232015        2.000000        0.00000161        0.00001254        0.00000012
     248         -0.230744        2.000000        0.00005458        0.00013972        0.00000356
     249         -0.230697        2.000000        0.00000010        0.00000024        0.00000001
     250         -0.229959        2.000000        0.00000888        0.00002278        0.00000056
     251         -0.229741        2.000000        0.00000000        0.00000001        0.00000000
     252         -0.228898        2.000000        0.00000001        0.00000005        0.00000000
     253         -0.227939        2.000000        0.00000000        0.00000000        0.00000000
     254         -0.227542        2.000000        0.00000000        0.00000000        0.00000000
     255         -0.227010        2.000000        0.00000000        0.00000000        0.00000000
     256         -0.226860        2.000000        0.00001311        0.00003763        0.00000068
     257         -0.226780        2.000000        0.00000000        0.00000000        0.00000000
     258         -0.226656        2.000000        0.00000000        0.00000000        0.00000000
     259         -0.226503        2.000000        0.00000794        0.00005010        0.00000085
     260         -0.226036        2.000000        0.00000002        0.00000005        0.00000000
     261         -0.225667        2.000000        0.00164561        0.00490628        0.00010166
     262         -0.225511        2.000000        0.00000644        0.00001935        0.00000039
     263         -0.224716        2.000000        0.00000023        0.00000069        0.00000001
     264         -0.224218        2.000000        0.00000005        0.00000014        0.00000000
     265         -0.223677        2.000000        0.00097018        0.00283930        0.00005708
     266         -0.223438        2.000000        0.00000119        0.00000355        0.00000007
     267         -0.223292        2.000000        0.00000000        0.00000001        0.00000000
     268         -0.223025        2.000000        0.00000008        0.00000032        0.00000000
     269         -0.222436        2.000000        0.00000011        0.00000035        0.00000001
     270         -0.222159        2.000000        0.00180086        0.00467582        0.00010723
     271         -0.221905        2.000000        0.00000002        0.00000008        0.00000000
     272         -0.221185        2.000000        0.00027739        0.00080113        0.00001525
     273         -0.220659        2.000000        0.00000001        0.00000006        0.00000000
     274         -0.219665        2.000000        0.00003207        0.00009117        0.00000176
     275         -0.219630        2.000000        0.00105966        0.00300471        0.00005785
     276         -0.218916        2.000000        0.00000023        0.00000060        0.00000001
     277         -0.218551        2.000000        0.00007150        0.00016745        0.00000477
     278         -0.218398        2.000000        0.00009737        0.00023127        0.00000655
     279         -0.218139        2.000000        0.00009773        0.00025457        0.00000540
     280         -0.217698        2.000000        0.00000633        0.00001674        0.00000039
     281         -0.217580        2.000000        0.00015679        0.00042984        0.00000847
     282         -0.217435        2.000000        0.00000222        0.00000767        0.00000011
     283         -0.216483        2.000000        0.00000098        0.00000287        0.00000007
     284         -0.216363        2.000000        0.00011775        0.00030897        0.00000725
     285         -0.216254        2.000000        0.00000068        0.00000173        0.00000004
     286         -0.215958        2.000000        0.00047093        0.00134721        0.00002513
     287         -0.215645        2.000000        0.00013849        0.00045103        0.00000566
     288         -0.215217        2.000000        0.00000073        0.00000232        0.00000005
     289         -0.214936        2.000000        0.00000002        0.00000006        0.00000000
     290         -0.214221        2.000000        0.00000166        0.00000436        0.00000010
     291         -0.213816        2.000000        0.00000682        0.00001825        0.00000041
     292         -0.213592        2.000000        0.00213465        0.00587070        0.00014244
     293         -0.213468        2.000000        0.00004775        0.00014092        0.00000313
     294         -0.213241        2.000000        0.00000076        0.00000318        0.00000009
     295         -0.213184        2.000000        0.01046391        0.03226381        0.00076078
     296         -0.212817        2.000000        0.00188439        0.01041591        0.00032107
     297         -0.212583        2.000000        0.00000692        0.00001794        0.00000042
     298         -0.212273        2.000000        0.00014005        0.00044460        0.00001280
     299         -0.211896        2.000000        0.00000025        0.00000103        0.00000004
     300         -0.211391        2.000000        0.00280766        0.00763118        0.00020695
     301         -0.211339        2.000000        0.00089129        0.00243553        0.00006623
     302         -0.211269        2.000000        0.00026959        0.00071577        0.00001863
     303         -0.211046        2.000000        0.00063056        0.00165833        0.00004187
     304         -0.210412        2.000000        0.00005228        0.00013602        0.00000347
     305         -0.210309        2.000000        0.00245300        0.00632468        0.00015325
     306         -0.210188        2.000000        0.00556847        0.01440861        0.00033544
     307         -0.210166        2.000000        0.00530166        0.01370606        0.00032114