# Projected DOS for list 10 of 3 atoms, at iteration step i = 0, E(Fermi) =     0.101540 a.u.
#     MO Eigenvalue [a.u.]      Occupation                 s                 p                 d
       1         -0.708367        2.000000        0.00003385        0.00004465        0.00000019
       2         -0.696979        2.000000        0.00015623        0.00007527        0.00000348
       3         -0.695301        2.000000        0.00002700        0.00003874        0.00000068
       4         -0.694902        2.000000        0.00000000        0.00000000        0.00000000
       5         -0.690081        2.000000        0.00000000        0.00000000        0.00000000
       6         -0.686805        2.000000        0.00063900        0.00031289        0.00001080
       7         -0.686571        2.000000        0.00006265        0.00003738        0.00000077
       8         -0.685003        2.000000        0.00000051        0.00001149        0.00000010
       9         -0.684036        2.000000        0.00011099        0.00005097        0.00000135
      10         -0.683920        2.000000        0.00000000        0.00000000        0.00000000
      11         -0.681735        2.000000        0.00066353        0.00024508        0.00000680
      12         -0.679408        2.000000        0.00051341        0.00013056        0.00000261
      13         -0.678932        2.000000        0.00000000        0.00000000        0.00000000
      14         -0.678381        2.000000        0.00043515        0.00015610        0.00000391
      15         -0.677963        2.000000        0.00000470        0.00003076        0.00000061
      16         -0.677540        2.000000        0.00000300        0.00002440        0.00000032
      17         -0.677381        2.000000        0.00000000        0.00000000        0.00000000
      18         -0.677246        2.000000        0.00025221        0.00010369        0.00000046
      19         -0.675827        2.000000        0.00217098        0.00032506        0.00000293
      20         -0.675724        2.000000        0.00000000        0.00000000        0.00000000
      21         -0.674932        2.000000        0.00000000        0.00000000        0.00000000
      22         -0.674380        2.000000        0.00333039        0.00069454        0.00001855
      23         -0.673393        2.000000        0.01315394        0.00202853        0.00004475
      24         -0.672924        2.000000        0.00000000        0.00000000        0.00000000
      25         -0.672289        2.000000        0.00017363        0.00023442        0.00000235
      26         -0.672227        2.000000        0.00000168        0.00000238        0.00000008
      27         -0.671275        2.000000        0.00000000        0.00000000        0.00000000
      28         -0.670770        2.000000        0.00117716        0.00019062        0.00000652
      29         -0.670400        2.000000        0.00119354        0.00207202        0.00002482
      30         -0.669922        2.000000        0.00960839        0.00177662        0.00002050
      31         -0.669606        2.000000        0.00000468        0.00000085        0.00000000
      32         -0.668947        2.000000        0.00403446        0.00048627        0.00000162
      33         -0.668931        2.000000        0.00228734        0.00026801        0.00000092
      34         -0.668431        2.000000        0.00126861        0.00102483        0.00000952
      35         -0.668008        2.000000        0.00127501        0.00023196        0.00000072
      36         -0.667083        2.000000        0.00383301        0.00115966        0.00000866
      37         -0.666996        2.000000        0.00000001        0.00000031        0.00000000
      38         -0.666939        2.000000        0.00181155        0.00143115        0.00001309
      39         -0.666646        2.000000        0.00259724        0.00077251        0.00001206
      40         -0.666363        2.000000        0.00074962        0.00318953        0.00004071
      41         -0.666281        2.000000        0.00000461        0.00000183        0.00000002
      42         -0.666129        2.000000        0.00308797        0.00042102        0.00000742
      43         -0.665867        2.000000        0.00899316        0.00187661        0.00001070
      44         -0.664404        2.000000        0.00000309        0.00000295        0.00000003
      45         -0.664061        2.000000        0.00007817        0.00045299        0.00000703
      46         -0.663948        2.000000        0.00010074        0.00004079        0.00000067
      47         -0.663550        2.000000        0.01423283        0.00350508        0.00002902
      48         -0.662943        2.000000        0.00000042        0.00000011        0.00000000
      49         -0.662627        2.000000        0.00048000        0.00011234        0.00000092
      50         -0.661965        2.000000        0.00103901        0.00024862        0.00000177
      51         -0.661528        2.000000        0.00000039        0.00000016        0.00000000
      52         -0.660900        2.000000        0.00000593        0.00000232        0.00000003
      53         -0.660166        2.000000        0.00560131        0.00184782        0.00001132
      54         -0.659683        2.000000        0.00000019        0.00000004        0.00000000
      55         -0.658835        2.000000        0.06995996        0.01305277        0.00008301
      56         -0.658814        2.000000        0.00025696        0.00004797        0.00000031
      57         -0.658691        2.000000        0.00004422        0.00000812        0.00000006
      58         -0.658084        2.000000        0.00026535        0.00033714        0.00000748
      59         -0.658073        2.000000        0.00001331        0.00007945        0.00000148
      60         -0.657975        2.000000        0.00109209        0.00022314        0.00000365
      61         -0.657678        2.000000        0.00523592        0.00111750        0.00005491
      62         -0.657592        2.000000        0.00540048        0.00102602        0.00002018
      63         -0.657226        2.000000        0.00000028        0.00000012        0.00000000
      64         -0.657087        2.000000        0.00183025        0.00040540        0.00000425
      65         -0.656742        2.000000        0.00156125        0.00025656        0.00000533
      66         -0.656449        2.000000        0.00738678        0.00143480        0.00004070
      67         -0.656215        2.000000        0.00313734        0.00079159        0.00002821
      68         -0.655700        2.000000        0.00000344        0.00003557        0.00000136
      69         -0.655174        2.000000        0.00000002        0.00000013        0.00000001
      70         -0.654827        2.000000        0.00012803        0.00061712        0.00001005
      71         -0.654660        2.000000        0.00000356        0.00000155        0.00000007
      72         -0.654406        2.000000        0.00555085        0.00178820        0.00001755
      73         -0.654250        2.000000        0.03401997        0.00745170        0.00019196
      74         -0.653619        2.000000        0.00000193        0.00000061        0.00000001
      75         -0.653105        2.000000        0.00005798        0.00007196        0.00000151
      76         -0.652904        2.000000        0.00003076        0.00004926        0.00000090
      77         -0.652612        2.000000        0.00508498        0.00161090        0.00001517
      78         -0.652411        2.000000        0.00500391        0.00103607        0.00002440
      79         -0.652213        2.000000        0.00025433        0.00004315        0.00000079
      80         -0.652083        2.000000        0.00092140        0.00017168        0.00000365
      81         -0.651807        2.000000        0.00101977        0.00021112        0.00000560
      82         -0.651706        2.000000        0.00006842        0.00001733        0.00000050
      83         -0.651237        2.000000        0.00010437        0.00010217        0.00000356
      84         -0.651053        2.000000        0.00004191        0.00018149        0.00000535
      85         -0.650411        2.000000        0.00004398        0.00035771        0.00000777
      86         -0.650326        2.000000        0.00007735        0.00058801        0.00001228
      87         -0.650219        2.000000        0.00373683        0.00088302        0.00001902
      88         -0.650130        2.000000        0.00010377        0.00029218        0.00000463
      89         -0.649849        2.000000        0.00024531        0.00107419        0.00002664
      90         -0.649510        2.000000        0.00034052        0.00449658        0.00009819
      91         -0.648737        2.000000        0.00040518        0.00061635        0.00000771
      92         -0.648608        2.000000        0.00014085        0.00017338        0.00000190
      93         -0.648509        2.000000        0.00278522        0.00381175        0.00005303
      94         -0.648091        2.000000        0.00000687        0.00002295        0.00000053
      95         -0.647956        2.000000        0.00000053        0.00000010        0.00000000
      96         -0.647875        2.000000        0.00112749        0.00023057        0.00000979
      97         -0.647628        2.000000        0.00408383        0.00174623        0.00001334
      98         -0.647248        2.000000        0.00039178        0.00040110        0.00000528
      99         -0.646997        2.000000        0.00000144        0.00000105        0.00000001
     100         -0.646893        2.000000        0.00000364        0.00000188        0.00000001
     101         -0.646794        2.000000        0.00012363        0.00006967        0.00000080
     102         -0.645843        2.000000        0.00000113        0.00000382        0.00000021
     103         -0.645519        2.000000        0.00001439        0.00003294        0.00000078
     104         -0.645232        2.000000        0.00014268        0.00013109        0.00000154
     105         -0.644964        2.000000        0.00001715        0.00031566        0.00000781
     106         -0.644451        2.000000        0.00010869        0.00004350        0.00000039
     107         -0.644170        2.000000        0.00845354        0.00358131        0.00001446
     108         -0.643891        2.000000        0.00108497        0.00032110        0.00000144
     109         -0.643862        2.000000        0.00500563        0.00157254        0.00000586
     110         -0.643478        2.000000        0.00128603        0.00032931        0.00000232
     111         -0.643325        2.000000        0.00000693        0.00002064        0.00000026
     112         -0.642934        2.000000        0.00010612        0.00002207        0.00000021
     113         -0.642899        2.000000        0.02136893        0.00415013        0.00009968
     114         -0.642460        2.000000        0.00055247        0.00022293        0.00000513
     115         -0.642175        2.000000        0.00001496        0.00000470        0.00000019
     116         -0.642120        2.000000        0.00497436        0.00112781        0.00004221
     117         -0.641851        2.000000        0.00026736        0.00006957        0.00000256
     118         -0.641683        2.000000        0.00047920        0.00048237        0.00001649
     119         -0.641305        2.000000        0.00009695        0.00016709        0.00000195
     120         -0.641072        2.000000        0.00007653        0.00005364        0.00000061
     121         -0.640960        2.000000        0.00007391        0.00004891        0.00000034
     122         -0.640793        2.000000        0.00002798        0.00003179        0.00000038
     123         -0.640578        2.000000        0.00086899        0.00057218        0.00000333
     124         -0.640464        2.000000        0.00015985        0.00009272        0.00000039
     125         -0.640169        2.000000        0.00000337        0.00000503        0.00000005
     126         -0.639736        2.000000        0.00002578        0.00000728        0.00000002
     127         -0.639499        2.000000        0.00003951        0.00000795        0.00000006
     128         -0.639154        2.000000        0.00031990        0.00007827        0.00000260
     129         -0.639060        2.000000        0.00012836        0.00004757        0.00000171
     130         -0.638976        2.000000        0.00016443        0.00012643        0.00000429
     131         -0.638593        2.000000        0.00000313        0.00000843        0.00000012
     132         -0.638261        2.000000        0.00087798        0.00016197        0.00000391
     133         -0.638059        2.000000        0.00071409        0.00029063        0.00000063
     134         -0.637912        2.000000        0.00059304        0.00021085        0.00000068
     135         -0.637762        2.000000        0.00003663        0.00006270        0.00000033
     136         -0.637584        2.000000        0.00001350        0.00000648        0.00000001
     137         -0.636804        2.000000        0.00073207        0.00012709        0.00000334
     138         -0.636640        2.000000        0.00003633        0.00001186        0.00000003
     139         -0.636429        2.000000        0.00004473        0.00001548        0.00000004
     140         -0.635515        2.000000        0.00000563        0.00000198        0.00000001
     141         -0.634989        2.000000        0.00000751        0.00000281        0.00000001
     142         -0.634462        2.000000        0.00000542        0.00000206        0.00000000
     143         -0.634132        2.000000        0.00000314        0.00000201        0.00000000
     144         -0.633763        2.000000        0.00000622        0.00000206        0.00000001
     145         -0.633531        2.000000        0.01507825        0.00443369        0.00001688
     146         -0.632585        2.000000        0.00016384        0.00003753        0.00000030
     147         -0.632333        2.000000        0.00000700        0.00000230        0.00000001
     148         -0.632031        2.000000        0.00000003        0.00000001        0.00000000
     149         -0.631841        2.000000        0.00000337        0.00000115        0.00000000
     150         -0.631318        2.000000        0.00019996        0.00005941        0.00000021
     151         -0.630640        2.000000        0.00004379        0.00001238        0.00000005
     152         -0.630519        2.000000        0.00000041        0.00000300        0.00000001
     153         -0.630490        2.000000        0.00030471        0.00011071        0.00000046
     154         -0.629959        2.000000        0.00000125        0.00000039        0.00000000
     155         -0.629452        2.000000        0.00010748        0.00003773        0.00000011
     156         -0.629210        2.000000        0.03000341        0.01032651        0.00003034
     157         -0.628856        2.000000        0.00000526        0.00000170        0.00000001
     158         -0.628516        2.000000        0.00559533        0.00205196        0.00000570
     159         -0.628511        2.000000        0.01181964        0.00409368        0.00001263
     160         -0.628382        2.000000        0.02551164        0.00861491        0.00002831
     161         -0.628242        2.000000        0.01871216        0.00634256        0.00002087
     162         -0.628026        2.000000        0.01856060        0.00624830        0.00002122
     163         -0.627712        2.000000        0.01646688        0.00515326        0.00002214
     164         -0.627438        2.000000        0.00073888        0.00024635        0.00000089
     165         -0.627281        2.000000        0.00143823        0.00045831        0.00000193
     166         -0.626983        2.000000        0.02496804        0.00777577        0.00003575
     167         -0.626804        2.000000        0.00508135        0.00158086        0.00000738
     168         -0.626588        2.000000        0.05165278        0.01600827        0.00007675
     169         -0.626019        2.000000        0.00001707        0.00000524        0.00000003
     170         -0.625843        2.000000        0.10521620        0.03190117        0.00017618
     171         -0.625019        2.000000        0.10570301        0.03169333        0.00019339
     172         -0.624831        2.000000        0.00621032        0.00185564        0.00001164
     173         -0.624166        2.000000        0.00188241        0.00055686        0.00000380
     174         -0.623906        2.000000        0.00003737        0.00001397        0.00000005
     175         -0.623799        2.000000        0.00004758        0.00001404        0.00000010
     176         -0.623716        2.000000        0.00094035        0.00027710        0.00000208
     177         -0.623382        2.000000        0.00277801        0.00081718        0.00000606
     178         -0.623067        2.000000        0.00002020        0.00000755        0.00000003
     179         -0.622801        2.000000        0.00012849        0.00003836        0.00000028
     180         -0.622617        2.000000        0.00097076        0.00028605        0.00000222
     181         -0.622499        2.000000        0.01011627        0.00296606        0.00002372
     182         -0.621672        2.000000        0.00034240        0.00009880        0.00000093
     183         -0.621151        2.000000        0.00038910        0.00011914        0.00000097
     184         -0.620781        2.000000        0.00052847        0.00015874        0.00000139
     185         -0.620579        2.000000        0.00000096        0.00000027        0.00000000
     186         -0.619930        2.000000        0.00000747        0.00000254        0.00000002
     187         -0.618694        2.000000        0.00115819        0.00032759        0.00000405
     188         -0.618461        2.000000        0.00000294        0.00000091        0.00000002
     189         -0.618211        2.000000        0.00115271        0.00044687        0.00000080
     190         -0.617957        2.000000        0.00013884        0.00004952        0.00000018
     191         -0.617770        2.000000        0.00000050        0.00000014        0.00000001
     192         -0.617636        2.000000        0.00000072        0.00000028        0.00000002
     193         -0.617200        2.000000        0.00000323        0.00000112        0.00000001
     194         -0.616810        2.000000        0.00000276        0.00000081        0.00000001
     195         -0.615618        2.000000        0.00000337        0.00000095        0.00000002
     196         -0.615377        2.000000        0.00000034        0.00000036        0.00000000
     197         -0.615228        2.000000        0.00000716        0.00000209        0.00000003
     198         -0.614941        2.000000        0.00006772        0.00002069        0.00000033
     199         -0.613862        2.000000        0.00000028        0.00000008        0.00000000
     200         -0.613167        2.000000        0.00000600        0.00000179        0.00000003
     201         -0.612937        2.000000        0.00000090        0.00000075        0.00000000
     202         -0.612465        2.000000        0.00001805        0.00000512        0.00000011
     203         -0.611371        2.000000        0.00001022        0.00000565        0.00000003
     204         -0.611273        2.000000        0.00000070        0.00000024        0.00000001
     205         -0.610903        2.000000        0.00009087        0.00002638        0.00000058
     206         -0.609912        2.000000        0.00002069        0.00000629        0.00000013
     207         -0.609442        2.000000        0.00415395        0.00125497        0.00002718
     208         -0.609149        2.000000        0.00041055        0.00012902        0.00000255
     209         -0.608882        2.000000        0.00001200        0.00000378        0.00000008
     210         -0.608562        2.000000        0.00000004        0.00000001        0.00000000
     211         -0.608012        2.000000        0.00001238        0.00000403        0.00000007
     212         -0.607014        2.000000        0.00002230        0.00000678        0.00000020
     213         -0.606300        2.000000        0.00000403        0.00000190        0.00000001
     214         -0.605948        2.000000        0.00000082        0.00000093        0.00000001
     215         -0.605403        2.000000        0.00008705        0.00006516        0.00000026
     216         -0.604664        2.000000        0.00000501        0.00000230        0.00000002
     217         -0.604080        2.000000        0.00000125        0.00000041        0.00000001
     218         -0.603538        2.000000        0.00000195        0.00000065        0.00000002
     219         -0.603145        2.000000        0.00000144        0.00000051        0.00000001
     220         -0.602213        2.000000        0.00000016        0.00000006        0.00000000
     221         -0.601871        2.000000        0.00000014        0.00000005        0.00000000
     222         -0.600521        2.000000        0.00000004        0.00000002        0.00000000
     223         -0.599848        2.000000        0.00000000        0.00000000        0.00000000
     224         -0.598111        2.000000        0.00000001        0.00000001        0.00000000
     225         -0.597286        2.000000        0.00000005        0.00000002        0.00000000
     226         -0.597121        2.000000        0.00000001        0.00000001        0.00000000
     227         -0.595585        2.000000        0.00000000        0.00000000        0.00000000
     228         -0.591103        2.000000        0.00000000        0.00000000        0.00000000
     229         -0.582585        2.000000        0.00000000        0.00000000        0.00000000
     230         -0.576283        2.000000        0.00000000        0.00000000        0.00000000
     231         -0.258156        2.000000        0.00000770        0.00003799        0.00000027
     232         -0.253473        2.000000        0.00000193        0.00000788        0.00000011
     233         -0.246233        2.000000        0.00003789        0.00009204        0.00000251
     234         -0.244651        2.000000        0.00000069        0.00000350        0.00000003
     235         -0.243092        2.000000        0.00000007        0.00000036        0.00000001
     236         -0.242544        2.000000        0.00000000        0.00000000        0.00000000
     237         -0.241048        2.000000        0.00000151        0.00000315        0.00000018
     238         -0.240546        2.000000        0.00022165        0.00150363        0.00003119
     239         -0.237982        2.000000        0.00004043        0.00045808        0.00001296
     240         -0.237798        2.000000        0.00000004        0.00000011        0.00000000
     241         -0.236566        2.000000        0.00000029        0.00000131        0.00000003
     242         -0.235920        2.000000        0.00000074        0.00000356        0.00000006
     243         -0.233145        2.000000        0.00000000        0.00000000        0.00000000
     244         -0.232785        2.000000        0.00000917        0.00006101        0.00000103
     245         -0.232224        2.000000        0.00000433        0.00003052        0.00000072
     246         -0.232174        2.000000        0.00000000        0.00000000        0.00000000
     247         -0.232015        2.000000        0.00000000        0.00000001        0.00000000
     248         -0.230744        2.000000        0.00000001        0.00000006        0.00000000
     249         -0.230697        2.000000        0.00000584        0.00002060        0.00000033
     250         -0.229959        2.000000        0.00000000        0.00000000        0.00000000
     251         -0.229741        2.000000        0.00003200        0.00009838        0.00000209
     252         -0.228898        2.000000        0.00001388        0.00006131        0.00000093
     253         -0.227939        2.000000        0.00026581        0.00102854        0.00001868
     254         -0.227542        2.000000        0.00026092        0.00093928        0.00001764
     255         -0.227010        2.000000        0.00039099        0.00187291        0.00003443
     256         -0.226860        2.000000        0.00000001        0.00000002        0.00000000
     257         -0.226780        2.000000        0.00012973        0.00049856        0.00000980
     258         -0.226656        2.000000        0.00084985        0.00417006        0.00008335
     259         -0.226503        2.000000        0.00000000        0.00000000        0.00000000
     260         -0.226036        2.000000        0.00037767        0.00290796        0.00004299
     261         -0.225667        2.000000        0.00000001        0.00000001        0.00000000
     262         -0.225511        2.000000        0.00000190        0.00000642        0.00000013
     263         -0.224716        2.000000        0.00118950        0.00522634        0.00009792
     264         -0.224218        2.000000        0.00159500        0.00778629        0.00013855
     265         -0.223677        2.000000        0.00000590        0.00002775        0.00000047
     266         -0.223438        2.000000        0.00172614        0.00823075        0.00014655
     267         -0.223292        2.000000        0.00002232        0.00011477        0.00000194
     268         -0.223025        2.000000        0.00005852        0.00032013        0.00000228
     269         -0.222436        2.000000        0.00145668        0.00362788        0.00010762
     270         -0.222159        2.000000        0.00000112        0.00000267        0.00000007
     271         -0.221905        2.000000        0.01255409        0.03456778        0.00083311
     272         -0.221185        2.000000        0.00000049        0.00000254        0.00000004
     273         -0.220659        2.000000        0.00012261        0.00065887        0.00000652
     274         -0.219665        2.000000        0.00526393        0.01880105        0.00036314
     275         -0.219630        2.000000        0.00017569        0.00065100        0.00001234
     276         -0.218916        2.000000        0.00182537        0.00466563        0.00011893
     277         -0.218551        2.000000        0.00024131        0.00240728        0.00004364
     278         -0.218398        2.000000        0.00026255        0.00196122        0.00004428
     279         -0.218139        2.000000        0.00000110        0.00000368        0.00000011
     280         -0.217698        2.000000        0.00056830        0.00216062        0.00003947
     281         -0.217580        2.000000        0.00001517        0.00004629        0.00000108
     282         -0.217435        2.000000        0.00087210        0.00223615        0.00005843
     283         -0.216483        2.000000        0.00004527        0.00020646        0.00000389
     284         -0.216363        2.000000        0.00000609        0.00002342        0.00000042
     285         -0.216254        2.000000        0.00038157        0.00122417        0.00002303
     286         -0.215958        2.000000        0.00000042        0.00000210        0.00000005
     287         -0.215645        2.000000        0.00000162        0.00000808        0.00000026
     288         -0.215217        2.000000        0.00002254        0.00005791        0.00000137
     289         -0.214936        2.000000        0.00079657        0.00180145        0.00005436
     290         -0.214221        2.000000        0.00001059        0.00004423        0.00000117
     291         -0.213816        2.000000        0.00036814        0.00103664        0.00002218
     292         -0.213592        2.000000        0.00000029        0.00000078        0.00000002
     293         -0.213468        2.000000        0.00002282        0.00007745        0.00000266
     294         -0.213241        2.000000        0.00005403        0.00014556        0.00000313
     295         -0.213184        2.000000        0.00000066        0.00000295        0.00000007
     296         -0.212817        2.000000        0.00000080        0.00000204        0.00000004
     297         -0.212583        2.000000        0.00008756        0.00019246        0.00000850
     298         -0.212273        2.000000        0.00000262        0.00000773        0.00000014
     299         -0.211896        2.000000        0.00003648        0.00012106        0.00000219
     300         -0.211391        2.000000        0.00066777        0.00158198        0.00004138
     301         -0.211339        2.000000        0.00009477        0.00021345        0.00000620
     302         -0.211269        2.000000        0.00012620        0.00030276        0.00000780
     303         -0.211046        2.000000        0.00429156        0.01054521        0.00026580
     304         -0.210412        2.000000        0.00262196        0.00661213        0.00015930
     305         -0.210309        2.000000        0.00013182        0.00038851        0.00000992
     306         -0.210188        2.000000        0.00033760        0.00087439        0.00002299
     307         -0.210166        2.000000        0.00025820        0.00060657        0.00001680