# Projected DOS for list 50 of 3 atoms, at iteration step i = 0, E(Fermi) =     0.101540 a.u.
#     MO Eigenvalue [a.u.]      Occupation                 s                 p                 d
       1         -0.708367        2.000000        0.00000000        0.00000000        0.00000000
       2         -0.696979        2.000000        0.00000003        0.00000007        0.00000000
       3         -0.695301        2.000000        0.00000000        0.00000000        0.00000000
       4         -0.694902        2.000000        0.00000000        0.00000000        0.00000000
       5         -0.690081        2.000000        0.00000000        0.00000000        0.00000000
       6         -0.686805        2.000000        0.00000028        0.00000058        0.00000000
       7         -0.686571        2.000000        0.00000000        0.00000000        0.00000000
       8         -0.685003        2.000000        0.00000011        0.00000016        0.00000000
       9         -0.684036        2.000000        0.00000421        0.00000710        0.00000002
      10         -0.683920        2.000000        0.00000000        0.00000000        0.00000000
      11         -0.681735        2.000000        0.00000544        0.00001134        0.00000003
      12         -0.679408        2.000000        0.00000006        0.00000006        0.00000000
      13         -0.678932        2.000000        0.00000000        0.00000000        0.00000000
      14         -0.678381        2.000000        0.00000022        0.00000008        0.00000000
      15         -0.677963        2.000000        0.00000053        0.00000133        0.00000000
      16         -0.677540        2.000000        0.00000444        0.00000906        0.00000004
      17         -0.677381        2.000000        0.00000000        0.00000000        0.00000000
      18         -0.677246        2.000000        0.00000182        0.00000423        0.00000002
      19         -0.675827        2.000000        0.00000047        0.00000105        0.00000000
      20         -0.675724        2.000000        0.00000000        0.00000000        0.00000000
      21         -0.674932        2.000000        0.00000000        0.00000000        0.00000000
      22         -0.674380        2.000000        0.00000197        0.00000165        0.00000001
      23         -0.673393        2.000000        0.00000052        0.00000088        0.00000000
      24         -0.672924        2.000000        0.00000001        0.00000001        0.00000000
      25         -0.672289        2.000000        0.00000004        0.00000010        0.00000000
      26         -0.672227        2.000000        0.00000436        0.00000092        0.00000002
      27         -0.671275        2.000000        0.00000002        0.00000001        0.00000000
      28         -0.670770        2.000000        0.00000304        0.00000103        0.00000001
      29         -0.670400        2.000000        0.00000053        0.00000028        0.00000000
      30         -0.669922        2.000000        0.00000554        0.00000105        0.00000002
      31         -0.669606        2.000000        0.00000255        0.00000105        0.00000001
      32         -0.668947        2.000000        0.00000486        0.00000163        0.00000003
      33         -0.668931        2.000000        0.00000094        0.00000035        0.00000001
      34         -0.668431        2.000000        0.00000242        0.00000230        0.00000002
      35         -0.668008        2.000000        0.00001054        0.00000227        0.00000008
      36         -0.667083        2.000000        0.00000216        0.00000103        0.00000002
      37         -0.666996        2.000000        0.00000003        0.00000001        0.00000000
      38         -0.666939        2.000000        0.00000069        0.00000017        0.00000000
      39         -0.666646        2.000000        0.00000018        0.00000121        0.00000000
      40         -0.666363        2.000000        0.00000283        0.00000482        0.00000005
      41         -0.666281        2.000000        0.00000009        0.00000004        0.00000000
      42         -0.666129        2.000000        0.00001076        0.00000198        0.00000004
      43         -0.665867        2.000000        0.00000587        0.00000351        0.00000005
      44         -0.664404        2.000000        0.00000035        0.00000013        0.00000000
      45         -0.664061        2.000000        0.00000222        0.00000208        0.00000001
      46         -0.663948        2.000000        0.00005712        0.00001540        0.00000017
      47         -0.663550        2.000000        0.00009510        0.00001210        0.00000034
      48         -0.662943        2.000000        0.00000054        0.00000010        0.00000000
      49         -0.662627        2.000000        0.00004138        0.00000754        0.00000017
      50         -0.661965        2.000000        0.00106797        0.00021839        0.00000420
      51         -0.661528        2.000000        0.00000256        0.00000069        0.00000000
      52         -0.660900        2.000000        0.00000091        0.00000011        0.00000000
      53         -0.660166        2.000000        0.00001603        0.00000249        0.00000005
      54         -0.659683        2.000000        0.00000004        0.00000006        0.00000000
      55         -0.658835        2.000000        0.00000466        0.00000711        0.00000001
      56         -0.658814        2.000000        0.00000218        0.00000037        0.00000000
      57         -0.658691        2.000000        0.00000001        0.00000008        0.00000000
      58         -0.658084        2.000000        0.00039066        0.00004065        0.00000095
      59         -0.658073        2.000000        0.00000173        0.00000471        0.00000001
      60         -0.657975        2.000000        0.01428574        0.00209907        0.00003657
      61         -0.657678        2.000000        0.00056887        0.00007333        0.00000142
      62         -0.657592        2.000000        0.00001690        0.00002236        0.00000025
      63         -0.657226        2.000000        0.00000015        0.00000111        0.00000000
      64         -0.657087        2.000000        0.00002288        0.00008097        0.00000026
      65         -0.656742        2.000000        0.00294945        0.00121328        0.00001112
      66         -0.656449        2.000000        0.00231112        0.00091221        0.00000974
      67         -0.656215        2.000000        0.00142395        0.00057080        0.00000554
      68         -0.655700        2.000000        0.00001824        0.00004168        0.00000082
      69         -0.655174        2.000000        0.00000297        0.00000089        0.00000000
      70         -0.654827        2.000000        0.00000365        0.00000861        0.00000014
      71         -0.654660        2.000000        0.00000133        0.00000066        0.00000000
      72         -0.654406        2.000000        0.00004577        0.00004075        0.00000027
      73         -0.654250        2.000000        0.00007136        0.00001083        0.00000019
      74         -0.653619        2.000000        0.00031160        0.00006824        0.00000079
      75         -0.653105        2.000000        0.01936233        0.00428205        0.00004619
      76         -0.652904        2.000000        0.00771912        0.00169391        0.00001834
      77         -0.652612        2.000000        0.00023671        0.00004623        0.00000056
      78         -0.652411        2.000000        0.00051814        0.00013630        0.00000120
      79         -0.652213        2.000000        0.00066847        0.00014939        0.00000178
      80         -0.652083        2.000000        0.00023400        0.00009207        0.00000100
      81         -0.651807        2.000000        0.00000407        0.00002342        0.00000039
      82         -0.651706        2.000000        0.00021990        0.00004836        0.00000067
      83         -0.651237        2.000000        0.01309125        0.00329301        0.00003292
      84         -0.651053        2.000000        0.00497652        0.00128887        0.00001318
      85         -0.650411        2.000000        0.00579173        0.00137958        0.00001191
      86         -0.650326        2.000000        0.00274615        0.00065453        0.00000569
      87         -0.650219        2.000000        0.00714786        0.00182575        0.00001748
      88         -0.650130        2.000000        0.00185056        0.00049464        0.00000426
      89         -0.649849        2.000000        0.05238463        0.01224751        0.00011481
      90         -0.649510        2.000000        0.00214455        0.00057084        0.00000399
      91         -0.648737        2.000000        0.09083870        0.02115629        0.00020057
      92         -0.648608        2.000000        0.00927558        0.00206615        0.00001832
      93         -0.648509        2.000000        0.04167420        0.01002061        0.00009382
      94         -0.648091        2.000000        0.00012679        0.00004413        0.00000025
      95         -0.647956        2.000000        0.00087486        0.00020916        0.00000222
      96         -0.647875        2.000000        0.00180993        0.00056742        0.00000430
      97         -0.647628        2.000000        0.00045042        0.00010764        0.00000100
      98         -0.647248        2.000000        0.00053428        0.00036956        0.00000295
      99         -0.646997        2.000000        0.00005992        0.00001305        0.00000013
     100         -0.646893        2.000000        0.00000638        0.00000277        0.00000004
     101         -0.646794        2.000000        0.00015174        0.00070301        0.00001200
     102         -0.645843        2.000000        0.00299427        0.00112758        0.00001771
     103         -0.645519        2.000000        0.00764269        0.00145680        0.00001799
     104         -0.645232        2.000000        0.00003055        0.00020108        0.00000246
     105         -0.644964        2.000000        0.00458706        0.00093003        0.00001040
     106         -0.644451        2.000000        0.00572755        0.00114874        0.00001934
     107         -0.644170        2.000000        0.00203882        0.00047253        0.00000514
     108         -0.643891        2.000000        0.00365403        0.00064636        0.00000947
     109         -0.643862        2.000000        0.00062465        0.00017029        0.00000161
     110         -0.643478        2.000000        0.00113390        0.00023786        0.00000269
     111         -0.643325        2.000000        0.00039364        0.00009767        0.00000124
     112         -0.642934        2.000000        0.00027411        0.00008479        0.00000204
     113         -0.642899        2.000000        0.00004861        0.00001263        0.00000011
     114         -0.642460        2.000000        0.00051155        0.00014495        0.00000099
     115         -0.642175        2.000000        0.00721672        0.00182361        0.00001520
     116         -0.642120        2.000000        0.00024338        0.00006273        0.00000053
     117         -0.641851        2.000000        0.02747325        0.00717604        0.00005714
     118         -0.641683        2.000000        0.03042936        0.00762645        0.00006098
     119         -0.641305        2.000000        0.03308505        0.00810348        0.00009336
     120         -0.641072        2.000000        0.00091040        0.00052213        0.00000096
     121         -0.640960        2.000000        0.00021561        0.00013013        0.00000043
     122         -0.640793        2.000000        0.00262010        0.00066601        0.00000957
     123         -0.640578        2.000000        0.00107964        0.00062763        0.00000395
     124         -0.640464        2.000000        0.01507626        0.00402885        0.00003377
     125         -0.640169        2.000000        0.00001281        0.00009660        0.00000043
     126         -0.639736        2.000000        0.01152070        0.00273344        0.00002541
     127         -0.639499        2.000000        0.02393594        0.00554459        0.00005696
     128         -0.639154        2.000000        0.00016047        0.00043512        0.00000249
     129         -0.639060        2.000000        0.00317931        0.00070288        0.00000796
     130         -0.638976        2.000000        0.00183079        0.00074326        0.00000376
     131         -0.638593        2.000000        0.01632159        0.00379815        0.00004017
     132         -0.638261        2.000000        0.00002853        0.00000956        0.00000015
     133         -0.638059        2.000000        0.06227420        0.01422654        0.00015172
     134         -0.637912        2.000000        0.04289669        0.00892840        0.00011308
     135         -0.637762        2.000000        0.00575911        0.00133196        0.00001427
     136         -0.637584        2.000000        0.01420650        0.00318714        0.00003465
     137         -0.636804        2.000000        0.00137340        0.00038419        0.00000308
     138         -0.636640        2.000000        0.02048188        0.00539813        0.00004482
     139         -0.636429        2.000000        0.01835791        0.00530557        0.00003914
     140         -0.635515        2.000000        0.00053445        0.00010237        0.00000313
     141         -0.634989        2.000000        0.01256731        0.00397888        0.00003805
     142         -0.634462        2.000000        0.01412595        0.00278375        0.00004619
     143         -0.634132        2.000000        0.06106944        0.01480251        0.00017145
     144         -0.633763        2.000000        0.00131445        0.00022384        0.00000451
     145         -0.633531        2.000000        0.00000720        0.00000333        0.00000004
     146         -0.632585        2.000000        0.00054128        0.00012609        0.00000296
     147         -0.632333        2.000000        0.00150713        0.00035856        0.00000406
     148         -0.632031        2.000000        0.00000240        0.00000226        0.00000002
     149         -0.631841        2.000000        0.00000556        0.00001606        0.00000000
     150         -0.631318        2.000000        0.00015297        0.00023422        0.00000037
     151         -0.630640        2.000000        0.00097090        0.00019787        0.00000477
     152         -0.630519        2.000000        0.00387714        0.00112409        0.00001105
     153         -0.630490        2.000000        0.00128669        0.00036337        0.00000387
     154         -0.629959        2.000000        0.00000418        0.00000375        0.00000001
     155         -0.629452        2.000000        0.00018396        0.00008306        0.00000042
     156         -0.629210        2.000000        0.00014185        0.00005770        0.00000049
     157         -0.628856        2.000000        0.00000139        0.00000038        0.00000001
     158         -0.628516        2.000000        0.00000848        0.00004745        0.00000030
     159         -0.628511        2.000000        0.00170128        0.00062497        0.00000525
     160         -0.628382        2.000000        0.00050240        0.00027178        0.00000138
     161         -0.628242        2.000000        0.00094730        0.00042159        0.00000271
     162         -0.628026        2.000000        0.00124456        0.00037054        0.00000503
     163         -0.627712        2.000000        0.00005413        0.00008399        0.00000173
     164         -0.627438        2.000000        0.00204463        0.00116913        0.00000588
     165         -0.627281        2.000000        0.00066566        0.00018208        0.00000244
     166         -0.626983        2.000000        0.00012594        0.00003355        0.00000057
     167         -0.626804        2.000000        0.00000311        0.00003179        0.00000024
     168         -0.626588        2.000000        0.00020461        0.00027832        0.00000046
     169         -0.626019        2.000000        0.00000142        0.00000083        0.00000001
     170         -0.625843        2.000000        0.00042270        0.00016035        0.00000086
     171         -0.625019        2.000000        0.00001223        0.00001832        0.00000018
     172         -0.624831        2.000000        0.00000245        0.00001111        0.00000026
     173         -0.624166        2.000000        0.00000759        0.00002632        0.00000014
     174         -0.623906        2.000000        0.00238057        0.00227899        0.00000253
     175         -0.623799        2.000000        0.00000814        0.00000266        0.00000007
     176         -0.623716        2.000000        0.00058729        0.00018143        0.00000176
     177         -0.623382        2.000000        0.00011524        0.00003288        0.00000043
     178         -0.623067        2.000000        0.00000051        0.00000316        0.00000001
     179         -0.622801        2.000000        0.00015145        0.00015477        0.00000151
     180         -0.622617        2.000000        0.00022421        0.00011249        0.00000111
     181         -0.622499        2.000000        0.00028631        0.00006074        0.00000220
     182         -0.621672        2.000000        0.00060256        0.00036105        0.00000092
     183         -0.621151        2.000000        0.00021967        0.00004465        0.00000096
     184         -0.620781        2.000000        0.00002841        0.00012835        0.00000086
     185         -0.620579        2.000000        0.00005148        0.00013309        0.00000104
     186         -0.619930        2.000000        0.00000167        0.00003013        0.00000042
     187         -0.618694        2.000000        0.00000096        0.00000105        0.00000000
     188         -0.618461        2.000000        0.00001047        0.00001235        0.00000005
     189         -0.618211        2.000000        0.00000041        0.00000108        0.00000001
     190         -0.617957        2.000000        0.00002866        0.00002850        0.00000076
     191         -0.617770        2.000000        0.00000127        0.00002144        0.00000054
     192         -0.617636        2.000000        0.00054632        0.00018686        0.00000973
     193         -0.617200        2.000000        0.00096890        0.00048381        0.00000744
     194         -0.616810        2.000000        0.00074375        0.00031128        0.00000765
     195         -0.615618        2.000000        0.00024058        0.00011443        0.00000426
     196         -0.615377        2.000000        0.00011756        0.00006462        0.00000033
     197         -0.615228        2.000000        0.00003200        0.00001454        0.00000109
     198         -0.614941        2.000000        0.00000286        0.00000165        0.00000001
     199         -0.613862        2.000000        0.00000669        0.00006888        0.00000049
     200         -0.613167        2.000000        0.00060940        0.00030103        0.00000643
     201         -0.612937        2.000000        0.00000234        0.00000782        0.00000005
     202         -0.612465        2.000000        0.00160117        0.00057345        0.00002818
     203         -0.611371        2.000000        0.00184033        0.00173408        0.00000352
     204         -0.611273        2.000000        0.00022124        0.00014830        0.00000054
     205         -0.610903        2.000000        0.00016137        0.00004974        0.00000140
     206         -0.609912        2.000000        0.00078582        0.00095461        0.00000208
     207         -0.609442        2.000000        0.00022807        0.00027477        0.00000056
     208         -0.609149        2.000000        0.00264141        0.00387054        0.00000670
     209         -0.608882        2.000000        0.00012390        0.00012018        0.00000024
     210         -0.608562        2.000000        0.00000747        0.00000864        0.00000002
     211         -0.608012        2.000000        0.00025615        0.00012503        0.00000062
     212         -0.607014        2.000000        0.00038545        0.00030039        0.00000361
     213         -0.606300        2.000000        0.00010205        0.00005132        0.00000038
     214         -0.605948        2.000000        0.00000066        0.00000261        0.00000000
     215         -0.605403        2.000000        0.00000370        0.00000566        0.00000004
     216         -0.604664        2.000000        0.00001561        0.00000798        0.00000041
     217         -0.604080        2.000000        0.00007280        0.00011178        0.00000048
     218         -0.603538        2.000000        0.00018123        0.00013250        0.00000046
     219         -0.603145        2.000000        0.00123293        0.00095324        0.00000281
     220         -0.602213        2.000000        0.00003449        0.00002225        0.00000008
     221         -0.601871        2.000000        0.00004006        0.00003092        0.00000006
     222         -0.600521        2.000000        0.00000903        0.00000676        0.00000002
     223         -0.599848        2.000000        0.00001099        0.00000555        0.00000004
     224         -0.598111        2.000000        0.00004652        0.00002584        0.00000021
     225         -0.597286        2.000000        0.00005009        0.00003077        0.00000020
     226         -0.597121        2.000000        0.00008459        0.00004011        0.00000031
     227         -0.595585        2.000000        0.00000004        0.00000005        0.00000000
     228         -0.591103        2.000000        0.00000069        0.00000327        0.00000003
     229         -0.582585        2.000000        0.00000018        0.00000037        0.00000000
     230         -0.576283        2.000000        0.00000002        0.00000002        0.00000000
     231         -0.258156        2.000000        0.00000000        0.00000000        0.00000000
     232         -0.253473        2.000000        0.00000004        0.00000009        0.00000000
     233         -0.246233        2.000000        0.00000000        0.00000001        0.00000000
     234         -0.244651        2.000000        0.00000000        0.00000000        0.00000000
     235         -0.243092        2.000000        0.00000000        0.00000001        0.00000000
     236         -0.242544        2.000000        0.00000000        0.00000000        0.00000000
     237         -0.241048        2.000000        0.00000006        0.00000016        0.00000000
     238         -0.240546        2.000000        0.00001104        0.00002942        0.00000062
     239         -0.237982        2.000000        0.00000154        0.00000401        0.00000010
     240         -0.237798        2.000000        0.00000000        0.00000000        0.00000000
     241         -0.236566        2.000000        0.00000000        0.00000000        0.00000000
     242         -0.235920        2.000000        0.00000000        0.00000000        0.00000000
     243         -0.233145        2.000000        0.00000000        0.00000000        0.00000000
     244         -0.232785        2.000000        0.00000008        0.00000021        0.00000000
     245         -0.232224        2.000000        0.00000016        0.00000040        0.00000001
     246         -0.232174        2.000000        0.00000000        0.00000001        0.00000000
     247         -0.232015        2.000000        0.00000000        0.00000001        0.00000000
     248         -0.230744        2.000000        0.00000000        0.00000000        0.00000000
     249         -0.230697        2.000000        0.00000001        0.00000002        0.00000000
     250         -0.229959        2.000000        0.00000001        0.00000003        0.00000000
     251         -0.229741        2.000000        0.00000042        0.00000102        0.00000003
     252         -0.228898        2.000000        0.00000001        0.00000002        0.00000000
     253         -0.227939        2.000000        0.00000216        0.00000600        0.00000015
     254         -0.227542        2.000000        0.00000012        0.00000040        0.00000001
     255         -0.227010        2.000000        0.00000038        0.00000137        0.00000002
     256         -0.226860        2.000000        0.00000002        0.00000007        0.00000000
     257         -0.226780        2.000000        0.00000054        0.00000178        0.00000005
     258         -0.226656        2.000000        0.00003219        0.00008648        0.00000208
     259         -0.226503        2.000000        0.00000015        0.00000074        0.00000001
     260         -0.226036        2.000000        0.00000016        0.00000064        0.00000001
     261         -0.225667        2.000000        0.00000021        0.00000091        0.00000001
     262         -0.225511        2.000000        0.00003754        0.00016498        0.00000207
     263         -0.224716        2.000000        0.00000433        0.00001217        0.00000024
     264         -0.224218        2.000000        0.00005569        0.00017195        0.00000292
     265         -0.223677        2.000000        0.00000010        0.00000031        0.00000001
     266         -0.223438        2.000000        0.00038015        0.00141154        0.00001962
     267         -0.223292        2.000000        0.01107298        0.04387327        0.00057749
     268         -0.223025        2.000000        0.00001304        0.00006055        0.00000071
     269         -0.222436        2.000000        0.00000046        0.00000461        0.00000005
     270         -0.222159        2.000000        0.00000001        0.00000003        0.00000000
     271         -0.221905        2.000000        0.00000139        0.00000752        0.00000016
     272         -0.221185        2.000000        0.00000001        0.00000005        0.00000000
     273         -0.220659        2.000000        0.00000522        0.00001645        0.00000041
     274         -0.219665        2.000000        0.00000003        0.00000019        0.00000000
     275         -0.219630        2.000000        0.00000003        0.00000010        0.00000000
     276         -0.218916        2.000000        0.00000018        0.00000092        0.00000001
     277         -0.218551        2.000000        0.00000008        0.00000019        0.00000000
     278         -0.218398        2.000000        0.00000009        0.00000025        0.00000001
     279         -0.218139        2.000000        0.00000041        0.00000174        0.00000005
     280         -0.217698        2.000000        0.00003608        0.00010613        0.00000257
     281         -0.217580        2.000000        0.00000006        0.00000031        0.00000001
     282         -0.217435        2.000000        0.00000664        0.00001823        0.00000043
     283         -0.216483        2.000000        0.00090453        0.00251914        0.00006107
     284         -0.216363        2.000000        0.00002403        0.00006569        0.00000154
     285         -0.216254        2.000000        0.00008966        0.00025414        0.00000625
     286         -0.215958        2.000000        0.00001104        0.00003052        0.00000064
     287         -0.215645        2.000000        0.00000038        0.00000182        0.00000004
     288         -0.215217        2.000000        0.02469183        0.06752982        0.00148900
     289         -0.214936        2.000000        0.00006897        0.00020562        0.00000293
     290         -0.214221        2.000000        0.00217368        0.00635134        0.00009623
     291         -0.213816        2.000000        0.00085068        0.00235676        0.00004817
     292         -0.213592        2.000000        0.00000332        0.00000983        0.00000015
     293         -0.213468        2.000000        0.00058470        0.00178178        0.00002375
     294         -0.213241        2.000000        0.00040658        0.00116748        0.00002853
     295         -0.213184        2.000000        0.00000081        0.00000332        0.00000002
     296         -0.212817        2.000000        0.00000249        0.00000699        0.00000017
     297         -0.212583        2.000000        0.00284541        0.00779064        0.00017495
     298         -0.212273        2.000000        0.00000886        0.00002501        0.00000048
     299         -0.211896        2.000000        0.00005583        0.00031944        0.00000223
     300         -0.211391        2.000000        0.00205378        0.00581872        0.00010921
     301         -0.211339        2.000000        0.00495397        0.01401735        0.00026286
     302         -0.211269        2.000000        0.00265546        0.00763206        0.00013945
     303         -0.211046        2.000000        0.00030979        0.00087716        0.00001651
     304         -0.210412        2.000000        0.00005415        0.00015528        0.00000374
     305         -0.210309        2.000000        0.00002476        0.00007368        0.00000122
     306         -0.210188        2.000000        0.00019859        0.00066373        0.00000910
     307         -0.210166        2.000000        0.00008104        0.00027863        0.00000320