# Projected DOS for list 16 of 3 atoms, at iteration step i = 0, E(Fermi) =     0.101540 a.u.
#     MO Eigenvalue [a.u.]      Occupation                 s                 p                 d
       1         -0.708367        2.000000        0.00000007        0.00000002        0.00000000
       2         -0.696979        2.000000        0.20916370        0.04782151        0.00043427
       3         -0.695301        2.000000        0.00294942        0.00066011        0.00000583
       4         -0.694902        2.000000        0.00000000        0.00000000        0.00000000
       5         -0.690081        2.000000        0.00000000        0.00000000        0.00000000
       6         -0.686805        2.000000        0.19938784        0.03219495        0.00058022
       7         -0.686571        2.000000        0.01856122        0.00306219        0.00005439
       8         -0.685003        2.000000        0.00006984        0.00005829        0.00000020
       9         -0.684036        2.000000        0.00171010        0.00161202        0.00000413
      10         -0.683920        2.000000        0.00000000        0.00000000        0.00000000
      11         -0.681735        2.000000        0.00233468        0.00509038        0.00003010
      12         -0.679408        2.000000        0.00286434        0.00166667        0.00000748
      13         -0.678932        2.000000        0.00000000        0.00000000        0.00000000
      14         -0.678381        2.000000        0.09397429        0.04144423        0.00018338
      15         -0.677963        2.000000        0.00526493        0.00266198        0.00000707
      16         -0.677540        2.000000        0.00815195        0.00397951        0.00001670
      17         -0.677381        2.000000        0.00000000        0.00000000        0.00000000
      18         -0.677246        2.000000        0.00627786        0.00219223        0.00001522
      19         -0.675827        2.000000        0.00422935        0.00159309        0.00000929
      20         -0.675724        2.000000        0.00000000        0.00000000        0.00000000
      21         -0.674932        2.000000        0.00000000        0.00000000        0.00000000
      22         -0.674380        2.000000        0.07480007        0.02339825        0.00026974
      23         -0.673393        2.000000        0.00461560        0.00145772        0.00000981
      24         -0.672924        2.000000        0.00000004        0.00000001        0.00000000
      25         -0.672289        2.000000        0.00037075        0.00014229        0.00000191
      26         -0.672227        2.000000        0.00089279        0.00035417        0.00000158
      27         -0.671275        2.000000        0.00000017        0.00000007        0.00000000
      28         -0.670770        2.000000        0.00874157        0.00397976        0.00001189
      29         -0.670400        2.000000        0.00113347        0.00176020        0.00002424
      30         -0.669922        2.000000        0.03727305        0.01674046        0.00005089
      31         -0.669606        2.000000        0.00000137        0.00000102        0.00000000
      32         -0.668947        2.000000        0.00005515        0.00022084        0.00000130
      33         -0.668931        2.000000        0.00004998        0.00012460        0.00000082
      34         -0.668431        2.000000        0.00825930        0.00375381        0.00001334
      35         -0.668008        2.000000        0.00191931        0.00093883        0.00000233
      36         -0.667083        2.000000        0.00062964        0.00091682        0.00000629
      37         -0.666996        2.000000        0.00000073        0.00000044        0.00000000
      38         -0.666939        2.000000        0.00405946        0.00146277        0.00001568
      39         -0.666646        2.000000        0.00029756        0.00029083        0.00000140
      40         -0.666363        2.000000        0.00021462        0.00124489        0.00000470
      41         -0.666281        2.000000        0.00000028        0.00000033        0.00000000
      42         -0.666129        2.000000        0.00283588        0.00129603        0.00001228
      43         -0.665867        2.000000        0.03646263        0.01371852        0.00009405
      44         -0.664404        2.000000        0.00000585        0.00000355        0.00000001
      45         -0.664061        2.000000        0.00031376        0.00034407        0.00000084
      46         -0.663948        2.000000        0.00009640        0.00006371        0.00000015
      47         -0.663550        2.000000        0.00749466        0.00440050        0.00001350
      48         -0.662943        2.000000        0.00000012        0.00000008        0.00000000
      49         -0.662627        2.000000        0.00017014        0.00006598        0.00000429
      50         -0.661965        2.000000        0.00007804        0.00008796        0.00000025
      51         -0.661528        2.000000        0.00000004        0.00000011        0.00000000
      52         -0.660900        2.000000        0.00000004        0.00000140        0.00000000
      53         -0.660166        2.000000        0.00418630        0.00177740        0.00005848
      54         -0.659683        2.000000        0.00000001        0.00000001        0.00000000
      55         -0.658835        2.000000        0.00050370        0.00056385        0.00001117
      56         -0.658814        2.000000        0.00000214        0.00000218        0.00000004
      57         -0.658691        2.000000        0.00000029        0.00000029        0.00000001
      58         -0.658084        2.000000        0.00016034        0.00015233        0.00000345
      59         -0.658073        2.000000        0.00005065        0.00004838        0.00000136
      60         -0.657975        2.000000        0.00001713        0.00003524        0.00000017
      61         -0.657678        2.000000        0.00066170        0.00065930        0.00000295
      62         -0.657592        2.000000        0.00006914        0.00013836        0.00000142
      63         -0.657226        2.000000        0.00000014        0.00000008        0.00000000
      64         -0.657087        2.000000        0.00002757        0.00004473        0.00000123
      65         -0.656742        2.000000        0.00006324        0.00003449        0.00000017
      66         -0.656449        2.000000        0.00059336        0.00039125        0.00000096
      67         -0.656215        2.000000        0.00057774        0.00039135        0.00000075
      68         -0.655700        2.000000        0.00003167        0.00003058        0.00000004
      69         -0.655174        2.000000        0.00000008        0.00000011        0.00000000
      70         -0.654827        2.000000        0.00007228        0.00023030        0.00001447
      71         -0.654660        2.000000        0.00000842        0.00000398        0.00000007
      72         -0.654406        2.000000        0.00126777        0.00062447        0.00000853
      73         -0.654250        2.000000        0.00224536        0.00156666        0.00000171
      74         -0.653619        2.000000        0.00000045        0.00000032        0.00000000
      75         -0.653105        2.000000        0.00000015        0.00000112        0.00000008
      76         -0.652904        2.000000        0.00000224        0.00000187        0.00000004
      77         -0.652612        2.000000        0.00000652        0.00005756        0.00000115
      78         -0.652411        2.000000        0.00039602        0.00019411        0.00000404
      79         -0.652213        2.000000        0.00000702        0.00000630        0.00000000
      80         -0.652083        2.000000        0.00007262        0.00005944        0.00000009
      81         -0.651807        2.000000        0.00019736        0.00017775        0.00000040
      82         -0.651706        2.000000        0.00003230        0.00002947        0.00000008
      83         -0.651237        2.000000        0.00009200        0.00008285        0.00000021
      84         -0.651053        2.000000        0.00017225        0.00017517        0.00000046
      85         -0.650411        2.000000        0.00003523        0.00001816        0.00000007
      86         -0.650326        2.000000        0.00018181        0.00013225        0.00000039
      87         -0.650219        2.000000        0.00009952        0.00004368        0.00000029
      88         -0.650130        2.000000        0.00051830        0.00046650        0.00000133
      89         -0.649849        2.000000        0.00005767        0.00006064        0.00000021
      90         -0.649510        2.000000        0.00011231        0.00011078        0.00000021
      91         -0.648737        2.000000        0.00000326        0.00001710        0.00000033
      92         -0.648608        2.000000        0.00000335        0.00000408        0.00000017
      93         -0.648509        2.000000        0.00004004        0.00005132        0.00000078
      94         -0.648091        2.000000        0.00000485        0.00000571        0.00000031
      95         -0.647956        2.000000        0.00000013        0.00000006        0.00000000
      96         -0.647875        2.000000        0.00110397        0.00062087        0.00002560
      97         -0.647628        2.000000        0.00001220        0.00003838        0.00000262
      98         -0.647248        2.000000        0.00092598        0.00051322        0.00002196
      99         -0.646997        2.000000        0.00000004        0.00000007        0.00000000
     100         -0.646893        2.000000        0.00000003        0.00000003        0.00000000
     101         -0.646794        2.000000        0.00000598        0.00002493        0.00000038
     102         -0.645843        2.000000        0.00000952        0.00000548        0.00000002
     103         -0.645519        2.000000        0.00015866        0.00006555        0.00000061
     104         -0.645232        2.000000        0.00001647        0.00000894        0.00000017
     105         -0.644964        2.000000        0.00001031        0.00001351        0.00000032
     106         -0.644451        2.000000        0.00000899        0.00000643        0.00000001
     107         -0.644170        2.000000        0.00038961        0.00016369        0.00000382
     108         -0.643891        2.000000        0.00011372        0.00006642        0.00000030
     109         -0.643862        2.000000        0.00009056        0.00009106        0.00000014
     110         -0.643478        2.000000        0.00239999        0.00092938        0.00001916
     111         -0.643325        2.000000        0.00016853        0.00007325        0.00000212
     112         -0.642934        2.000000        0.00000052        0.00000083        0.00000002
     113         -0.642899        2.000000        0.00000512        0.00002901        0.00000057
     114         -0.642460        2.000000        0.00005964        0.00007862        0.00000552
     115         -0.642175        2.000000        0.00000104        0.00000102        0.00000003
     116         -0.642120        2.000000        0.00000372        0.00000892        0.00000079
     117         -0.641851        2.000000        0.00000107        0.00000406        0.00000006
     118         -0.641683        2.000000        0.00000476        0.00000364        0.00000003
     119         -0.641305        2.000000        0.00000078        0.00000396        0.00000005
     120         -0.641072        2.000000        0.00000033        0.00000181        0.00000002
     121         -0.640960        2.000000        0.00000063        0.00000234        0.00000002
     122         -0.640793        2.000000        0.00000104        0.00000091        0.00000000
     123         -0.640578        2.000000        0.00000687        0.00000407        0.00000010
     124         -0.640464        2.000000        0.00000197        0.00000107        0.00000003
     125         -0.640169        2.000000        0.00000470        0.00000468        0.00000001
     126         -0.639736        2.000000        0.00000010        0.00000051        0.00000001
     127         -0.639499        2.000000        0.00000703        0.00000313        0.00000004
     128         -0.639154        2.000000        0.00005426        0.00002055        0.00000050
     129         -0.639060        2.000000        0.00004336        0.00001734        0.00000033
     130         -0.638976        2.000000        0.00007526        0.00003014        0.00000064
     131         -0.638593        2.000000        0.00000019        0.00000079        0.00000002
     132         -0.638261        2.000000        0.00003977        0.00002142        0.00000069
     133         -0.638059        2.000000        0.00004110        0.00003518        0.00000043
     134         -0.637912        2.000000        0.00000294        0.00001720        0.00000014
     135         -0.637762        2.000000        0.00029007        0.00016306        0.00000454
     136         -0.637584        2.000000        0.00000284        0.00000244        0.00000002
     137         -0.636804        2.000000        0.00001932        0.00000969        0.00000028
     138         -0.636640        2.000000        0.00000152        0.00000193        0.00000001
     139         -0.636429        2.000000        0.00000172        0.00000259        0.00000001
     140         -0.635515        2.000000        0.00000019        0.00000031        0.00000000
     141         -0.634989        2.000000        0.00000046        0.00000027        0.00000000
     142         -0.634462        2.000000        0.00000010        0.00000013        0.00000000
     143         -0.634132        2.000000        0.00000305        0.00000266        0.00000000
     144         -0.633763        2.000000        0.00000001        0.00000002        0.00000000
     145         -0.633531        2.000000        0.00000850        0.00001021        0.00000004
     146         -0.632585        2.000000        0.00000131        0.00000109        0.00000001
     147         -0.632333        2.000000        0.00000001        0.00000003        0.00000000
     148         -0.632031        2.000000        0.00000004        0.00000004        0.00000000
     149         -0.631841        2.000000        0.00000011        0.00000010        0.00000000
     150         -0.631318        2.000000        0.00000137        0.00000101        0.00000000
     151         -0.630640        2.000000        0.00000047        0.00000076        0.00000003
     152         -0.630519        2.000000        0.00001938        0.00002092        0.00000096
     153         -0.630490        2.000000        0.00007937        0.00007408        0.00000337
     154         -0.629959        2.000000        0.00000015        0.00000019        0.00000000
     155         -0.629452        2.000000        0.00000113        0.00000111        0.00000000
     156         -0.629210        2.000000        0.00002931        0.00002765        0.00000002
     157         -0.628856        2.000000        0.00000005        0.00000006        0.00000000
     158         -0.628516        2.000000        0.00000936        0.00001093        0.00000005
     159         -0.628511        2.000000        0.00000062        0.00000513        0.00000012
     160         -0.628382        2.000000        0.00000105        0.00000906        0.00000016
     161         -0.628242        2.000000        0.00000561        0.00000880        0.00000006
     162         -0.628026        2.000000        0.00000906        0.00001156        0.00000005
     163         -0.627712        2.000000        0.00000023        0.00000155        0.00000001
     164         -0.627438        2.000000        0.00000009        0.00000077        0.00000001
     165         -0.627281        2.000000        0.00000054        0.00000288        0.00000005
     166         -0.626983        2.000000        0.00000598        0.00000748        0.00000003
     167         -0.626804        2.000000        0.00000157        0.00000185        0.00000001
     168         -0.626588        2.000000        0.00001983        0.00002192        0.00000007
     169         -0.626019        2.000000        0.00000001        0.00000001        0.00000000
     170         -0.625843        2.000000        0.00001386        0.00002446        0.00000011
     171         -0.625019        2.000000        0.00002974        0.00004624        0.00000009
     172         -0.624831        2.000000        0.00000209        0.00000295        0.00000001
     173         -0.624166        2.000000        0.00000101        0.00000154        0.00000000
     174         -0.623906        2.000000        0.00000046        0.00000176        0.00000001
     175         -0.623799        2.000000        0.00000001        0.00000002        0.00000000
     176         -0.623716        2.000000        0.00000006        0.00000040        0.00000000
     177         -0.623382        2.000000        0.00000148        0.00000226        0.00000000
     178         -0.623067        2.000000        0.00000113        0.00000236        0.00000020
     179         -0.622801        2.000000        0.00000015        0.00000012        0.00000000
     180         -0.622617        2.000000        0.00000068        0.00000104        0.00000000
     181         -0.622499        2.000000        0.00000710        0.00001170        0.00000002
     182         -0.621672        2.000000        0.00000043        0.00000117        0.00000001
     183         -0.621151        2.000000        0.00000782        0.00000512        0.00000005
     184         -0.620781        2.000000        0.00000245        0.00000276        0.00000001
     185         -0.620579        2.000000        0.00000000        0.00000001        0.00000000
     186         -0.619930        2.000000        0.00000008        0.00000009        0.00000000
     187         -0.618694        2.000000        0.00000722        0.00000480        0.00000014
     188         -0.618461        2.000000        0.00000007        0.00000030        0.00000000
     189         -0.618211        2.000000        0.00000513        0.00001085        0.00000011
     190         -0.617957        2.000000        0.00000034        0.00000040        0.00000000
     191         -0.617770        2.000000        0.00000007        0.00000035        0.00000000
     192         -0.617636        2.000000        0.00000010        0.00000013        0.00000000
     193         -0.617200        2.000000        0.00000001        0.00000008        0.00000000
     194         -0.616810        2.000000        0.00000001        0.00000002        0.00000000
     195         -0.615618        2.000000        0.00000001        0.00000001        0.00000000
     196         -0.615377        2.000000        0.00000041        0.00000038        0.00000000
     197         -0.615228        2.000000        0.00000000        0.00000001        0.00000000
     198         -0.614941        2.000000        0.00000021        0.00000027        0.00000001
     199         -0.613862        2.000000        0.00000001        0.00000001        0.00000000
     200         -0.613167        2.000000        0.00000001        0.00000003        0.00000000
     201         -0.612937        2.000000        0.00000077        0.00000289        0.00000003
     202         -0.612465        2.000000        0.00000003        0.00000008        0.00000000
     203         -0.611371        2.000000        0.00000018        0.00000059        0.00000000
     204         -0.611273        2.000000        0.00000001        0.00000005        0.00000000
     205         -0.610903        2.000000        0.00000004        0.00000011        0.00000000
     206         -0.609912        2.000000        0.00000014        0.00000029        0.00000000
     207         -0.609442        2.000000        0.00000253        0.00000734        0.00000004
     208         -0.609149        2.000000        0.00000034        0.00000103        0.00000001
     209         -0.608882        2.000000        0.00000001        0.00000003        0.00000000
     210         -0.608562        2.000000        0.00000000        0.00000000        0.00000000
     211         -0.608012        2.000000        0.00000003        0.00000005        0.00000000
     212         -0.607014        2.000000        0.00000000        0.00000003        0.00000000
     213         -0.606300        2.000000        0.00000005        0.00000007        0.00000000
     214         -0.605948        2.000000        0.00000000        0.00000004        0.00000000
     215         -0.605403        2.000000        0.00000001        0.00000009        0.00000000
     216         -0.604664        2.000000        0.00000040        0.00000052        0.00000000
     217         -0.604080        2.000000        0.00000004        0.00000004        0.00000000
     218         -0.603538        2.000000        0.00000014        0.00000014        0.00000000
     219         -0.603145        2.000000        0.00000001        0.00000004        0.00000000
     220         -0.602213        2.000000        0.00000000        0.00000001        0.00000000
     221         -0.601871        2.000000        0.00000001        0.00000006        0.00000000
     222         -0.600521        2.000000        0.00000378        0.00000866        0.00000007
     223         -0.599848        2.000000        0.00000005        0.00000012        0.00000000
     224         -0.598111        2.000000        0.00000000        0.00000001        0.00000000
     225         -0.597286        2.000000        0.00000000        0.00000001        0.00000000
     226         -0.597121        2.000000        0.00000000        0.00000000        0.00000000
     227         -0.595585        2.000000        0.00000000        0.00000000        0.00000000
     228         -0.591103        2.000000        0.00000001        0.00000005        0.00000000
     229         -0.582585        2.000000        0.00000000        0.00000000        0.00000000
     230         -0.576283        2.000000        0.00000000        0.00000000        0.00000000
     231         -0.258156        2.000000        0.00000015        0.00000076        0.00000001
     232         -0.253473        2.000000        0.01446749        0.07699706        0.00093239
     233         -0.246233        2.000000        0.00002908        0.00013943        0.00000206
     234         -0.244651        2.000000        0.00000762        0.00003717        0.00000068
     235         -0.243092        2.000000        0.00003227        0.00013893        0.00000196
     236         -0.242544        2.000000        0.00000000        0.00000000        0.00000000
     237         -0.241048        2.000000        0.00003839        0.00011956        0.00000321
     238         -0.240546        2.000000        0.00514726        0.01457420        0.00045090
     239         -0.237982        2.000000        0.00171276        0.00492258        0.00014615
     240         -0.237798        2.000000        0.00000041        0.00000137        0.00000003
     241         -0.236566        2.000000        0.00000827        0.00004371        0.00000038
     242         -0.235920        2.000000        0.00000698        0.00004128        0.00000043
     243         -0.233145        2.000000        0.00000000        0.00000002        0.00000000
     244         -0.232785        2.000000        0.00045001        0.00197299        0.00002255
     245         -0.232224        2.000000        0.00093808        0.00437875        0.00004762
     246         -0.232174        2.000000        0.00000006        0.00000028        0.00000000
     247         -0.232015        2.000000        0.00000022        0.00000100        0.00000001
     248         -0.230744        2.000000        0.00000044        0.00000170        0.00000003
     249         -0.230697        2.000000        0.00015797        0.00061790        0.00000907
     250         -0.229959        2.000000        0.00000032        0.00000144        0.00000002
     251         -0.229741        2.000000        0.00163739        0.00735990        0.00008399
     252         -0.228898        2.000000        0.00007369        0.00037526        0.00000379
     253         -0.227939        2.000000        0.00020098        0.00061870        0.00001510
     254         -0.227542        2.000000        0.00000813        0.00008651        0.00000025
     255         -0.227010        2.000000        0.00015921        0.00054636        0.00001015
     256         -0.226860        2.000000        0.00000000        0.00000000        0.00000000
     257         -0.226780        2.000000        0.00010887        0.00046325        0.00000600
     258         -0.226656        2.000000        0.00484789        0.01463399        0.00039003
     259         -0.226503        2.000000        0.00000006        0.00000019        0.00000000
     260         -0.226036        2.000000        0.00051023        0.00302774        0.00002309
     261         -0.225667        2.000000        0.00000000        0.00000001        0.00000000
     262         -0.225511        2.000000        0.00000457        0.00001384        0.00000034
     263         -0.224716        2.000000        0.00423914        0.01463548        0.00026986
     264         -0.224218        2.000000        0.00181786        0.00708520        0.00010286
     265         -0.223677        2.000000        0.00001047        0.00003006        0.00000088
     266         -0.223438        2.000000        0.00377407        0.01099080        0.00031706
     267         -0.223292        2.000000        0.00008019        0.00025284        0.00000738
     268         -0.223025        2.000000        0.00037484        0.00287140        0.00001760
     269         -0.222436        2.000000        0.00027394        0.00187025        0.00000571
     270         -0.222159        2.000000        0.00000013        0.00000042        0.00000001
     271         -0.221905        2.000000        0.00260576        0.00782742        0.00021660
     272         -0.221185        2.000000        0.00000019        0.00000070        0.00000003
     273         -0.220659        2.000000        0.00158319        0.00821220        0.00009137
     274         -0.219665        2.000000        0.00122327        0.00399324        0.00014520
     275         -0.219630        2.000000        0.00004596        0.00014418        0.00000550
     276         -0.218916        2.000000        0.00016786        0.00137251        0.00001471
     277         -0.218551        2.000000        0.00022625        0.00077291        0.00003676
     278         -0.218398        2.000000        0.00018687        0.00065779        0.00002963
     279         -0.218139        2.000000        0.00000005        0.00000049        0.00000001
     280         -0.217698        2.000000        0.00022482        0.00065824        0.00002376
     281         -0.217580        2.000000        0.00001570        0.00005391        0.00000100
     282         -0.217435        2.000000        0.00019005        0.00104523        0.00001169
     283         -0.216483        2.000000        0.00006369        0.00038751        0.00000599
     284         -0.216363        2.000000        0.00000125        0.00000858        0.00000013
     285         -0.216254        2.000000        0.00009707        0.00071914        0.00000838
     286         -0.215958        2.000000        0.00000072        0.00000446        0.00000007
     287         -0.215645        2.000000        0.00000405        0.00002396        0.00000036
     288         -0.215217        2.000000        0.00007478        0.00022902        0.00000535
     289         -0.214936        2.000000        0.00004450        0.00010019        0.00000222
     290         -0.214221        2.000000        0.00009508        0.00034256        0.00000681
     291         -0.213816        2.000000        0.00282099        0.00770102        0.00018917
     292         -0.213592        2.000000        0.00000111        0.00000333        0.00000007
     293         -0.213468        2.000000        0.00001014        0.00003536        0.00000070
     294         -0.213241        2.000000        0.00013737        0.00039002        0.00000971
     295         -0.213184        2.000000        0.00000385        0.00001759        0.00000017
     296         -0.212817        2.000000        0.00000081        0.00000374        0.00000004
     297         -0.212583        2.000000        0.00009764        0.00018852        0.00000353
     298         -0.212273        2.000000        0.00000311        0.00001090        0.00000016
     299         -0.211896        2.000000        0.00013726        0.00041461        0.00001099
     300         -0.211391        2.000000        0.00007863        0.00024635        0.00000600
     301         -0.211339        2.000000        0.00007495        0.00026027        0.00000566
     302         -0.211269        2.000000        0.00007163        0.00022700        0.00000549
     303         -0.211046        2.000000        0.00003528        0.00011093        0.00000272
     304         -0.210412        2.000000        0.00006584        0.00022390        0.00000447
     305         -0.210309        2.000000        0.00007166        0.00022155        0.00000560
     306         -0.210188        2.000000        0.00001566        0.00005329        0.00000122
     307         -0.210166        2.000000        0.00003427        0.00011421        0.00000262