# Projected DOS for list 120 of 3 atoms, at iteration step i = 0, E(Fermi) =     0.101540 a.u.
#     MO Eigenvalue [a.u.]      Occupation                 s                 p                 d
       1         -0.708367        2.000000        0.00000000        0.00000000        0.00000000
       2         -0.696979        2.000000        0.00000000        0.00000000        0.00000000
       3         -0.695301        2.000000        0.00000000        0.00000000        0.00000000
       4         -0.694902        2.000000        0.00000036        0.00000043        0.00000000
       5         -0.690081        2.000000        0.00000313        0.00000050        0.00000001
       6         -0.686805        2.000000        0.00000000        0.00000000        0.00000000
       7         -0.686571        2.000000        0.00000000        0.00000000        0.00000000
       8         -0.685003        2.000000        0.00000000        0.00000000        0.00000000
       9         -0.684036        2.000000        0.00000000        0.00000000        0.00000000
      10         -0.683920        2.000000        0.00000722        0.00000101        0.00000002
      11         -0.681735        2.000000        0.00000000        0.00000000        0.00000000
      12         -0.679408        2.000000        0.00000000        0.00000000        0.00000000
      13         -0.678932        2.000000        0.02037599        0.00410739        0.00004426
      14         -0.678381        2.000000        0.00000000        0.00000000        0.00000000
      15         -0.677963        2.000000        0.00000000        0.00000000        0.00000000
      16         -0.677540        2.000000        0.00000000        0.00000000        0.00000000
      17         -0.677381        2.000000        0.00023192        0.00489987        0.00013216
      18         -0.677246        2.000000        0.00000000        0.00000000        0.00000000
      19         -0.675827        2.000000        0.00000000        0.00000000        0.00000000
      20         -0.675724        2.000000        0.00078042        0.00028112        0.00000266
      21         -0.674932        2.000000        0.00008231        0.00023119        0.00000312
      22         -0.674380        2.000000        0.00000000        0.00000001        0.00000000
      23         -0.673393        2.000000        0.00000000        0.00000000        0.00000000
      24         -0.672924        2.000000        0.00006574        0.00001412        0.00000011
      25         -0.672289        2.000000        0.00000005        0.00000006        0.00000000
      26         -0.672227        2.000000        0.00001760        0.00002253        0.00000035
      27         -0.671275        2.000000        0.00020813        0.00001551        0.00000016
      28         -0.670770        2.000000        0.00000013        0.00000014        0.00000000
      29         -0.670400        2.000000        0.00000029        0.00000028        0.00000000
      30         -0.669922        2.000000        0.00000015        0.00000015        0.00000000
      31         -0.669606        2.000000        0.01681337        0.01385007        0.00021780
      32         -0.668947        2.000000        0.00015725        0.00071074        0.00001693
      33         -0.668931        2.000000        0.00053654        0.00151808        0.00003639
      34         -0.668431        2.000000        0.00001359        0.00001128        0.00000021
      35         -0.668008        2.000000        0.00000510        0.00000434        0.00000008
      36         -0.667083        2.000000        0.00000184        0.00000121        0.00000002
      37         -0.666996        2.000000        0.00000183        0.00001039        0.00000022
      38         -0.666939        2.000000        0.00000013        0.00000010        0.00000000
      39         -0.666646        2.000000        0.00000105        0.00000084        0.00000002
      40         -0.666363        2.000000        0.00000264        0.00000156        0.00000004
      41         -0.666281        2.000000        0.00204710        0.00418457        0.00003953
      42         -0.666129        2.000000        0.00000816        0.00001392        0.00000012
      43         -0.665867        2.000000        0.00000209        0.00000216        0.00000003
      44         -0.664404        2.000000        0.00013934        0.00003986        0.00000118
      45         -0.664061        2.000000        0.00010156        0.00006367        0.00000106
      46         -0.663948        2.000000        0.00823164        0.00475820        0.00008185
      47         -0.663550        2.000000        0.00005468        0.00003088        0.00000054
      48         -0.662943        2.000000        0.00038918        0.00084090        0.00001551
      49         -0.662627        2.000000        0.00000000        0.00000000        0.00000000
      50         -0.661965        2.000000        0.00000272        0.00000134        0.00000002
      51         -0.661528        2.000000        0.00053460        0.00032419        0.00000706
      52         -0.660900        2.000000        0.00002478        0.00001036        0.00000018
      53         -0.660166        2.000000        0.00000004        0.00000002        0.00000000
      54         -0.659683        2.000000        0.00001708        0.00010884        0.00000262
      55         -0.658835        2.000000        0.00000185        0.00000071        0.00000002
      56         -0.658814        2.000000        0.00000517        0.00002867        0.00000066
      57         -0.658691        2.000000        0.00007414        0.00011433        0.00000065
      58         -0.658084        2.000000        0.00000955        0.00006176        0.00000108
      59         -0.658073        2.000000        0.00002286        0.00019642        0.00000359
      60         -0.657975        2.000000        0.00000323        0.00000210        0.00000005
      61         -0.657678        2.000000        0.00000261        0.00000108        0.00000003
      62         -0.657592        2.000000        0.00000140        0.00000052        0.00000000
      63         -0.657226        2.000000        0.00004695        0.00003544        0.00000023
      64         -0.657087        2.000000        0.00001455        0.00000367        0.00000004
      65         -0.656742        2.000000        0.00011444        0.00002812        0.00000025
      66         -0.656449        2.000000        0.00001392        0.00000687        0.00000004
      67         -0.656215        2.000000        0.00001883        0.00002475        0.00000025
      68         -0.655700        2.000000        0.00001473        0.00005421        0.00000110
      69         -0.655174        2.000000        0.00005658        0.00003569        0.00000097
      70         -0.654827        2.000000        0.00000179        0.00000060        0.00000002
      71         -0.654660        2.000000        0.00024472        0.00017315        0.00000563
      72         -0.654406        2.000000        0.00000012        0.00000055        0.00000001
      73         -0.654250        2.000000        0.00000007        0.00000033        0.00000001
      74         -0.653619        2.000000        0.00012285        0.00052678        0.00001014
      75         -0.653105        2.000000        0.00002456        0.00013656        0.00000308
      76         -0.652904        2.000000        0.00006193        0.00022910        0.00000532
      77         -0.652612        2.000000        0.00000003        0.00000112        0.00000000
      78         -0.652411        2.000000        0.00000078        0.00000048        0.00000001
      79         -0.652213        2.000000        0.00000415        0.00005973        0.00000095
      80         -0.652083        2.000000        0.00000278        0.00003302        0.00000008
      81         -0.651807        2.000000        0.00007054        0.00003999        0.00000133
      82         -0.651706        2.000000        0.00001819        0.00012832        0.00000473
      83         -0.651237        2.000000        0.00000302        0.00007491        0.00000067
      84         -0.651053        2.000000        0.00001972        0.00005661        0.00000089
      85         -0.650411        2.000000        0.00003117        0.00017632        0.00000090
      86         -0.650326        2.000000        0.00015282        0.00004422        0.00000098
      87         -0.650219        2.000000        0.00001886        0.00001884        0.00000016
      88         -0.650130        2.000000        0.00023873        0.00013638        0.00000138
      89         -0.649849        2.000000        0.00068444        0.00030678        0.00000451
      90         -0.649510        2.000000        0.00005355        0.00001953        0.00000030
      91         -0.648737        2.000000        0.00050712        0.00013276        0.00000323
      92         -0.648608        2.000000        0.00004836        0.00012106        0.00000134
      93         -0.648509        2.000000        0.00001621        0.00000671        0.00000006
      94         -0.648091        2.000000        0.00003531        0.00015094        0.00000067
      95         -0.647956        2.000000        0.00001424        0.00001785        0.00000001
      96         -0.647875        2.000000        0.00000088        0.00000138        0.00000000
      97         -0.647628        2.000000        0.00000481        0.00000114        0.00000001
      98         -0.647248        2.000000        0.00000003        0.00000067        0.00000000
      99         -0.646997        2.000000        0.00060805        0.00026669        0.00000932
     100         -0.646893        2.000000        0.00039881        0.00015577        0.00000337
     101         -0.646794        2.000000        0.00000627        0.00000349        0.00000003
     102         -0.645843        2.000000        0.00078863        0.00012140        0.00000283
     103         -0.645519        2.000000        0.00015622        0.00002554        0.00000051
     104         -0.645232        2.000000        0.00003318        0.00001155        0.00000005
     105         -0.644964        2.000000        0.00000156        0.00000047        0.00000001
     106         -0.644451        2.000000        0.00058208        0.00005635        0.00000241
     107         -0.644170        2.000000        0.00027861        0.00004602        0.00000118
     108         -0.643891        2.000000        0.00027050        0.00021834        0.00000220
     109         -0.643862        2.000000        0.00074716        0.00027866        0.00000600
     110         -0.643478        2.000000        0.00075731        0.00008031        0.00000233
     111         -0.643325        2.000000        0.00307053        0.00037239        0.00001129
     112         -0.642934        2.000000        0.00260057        0.00060384        0.00000251
     113         -0.642899        2.000000        0.00000105        0.00000062        0.00000000
     114         -0.642460        2.000000        0.00000417        0.00000046        0.00000001
     115         -0.642175        2.000000        0.00283537        0.00044859        0.00001074
     116         -0.642120        2.000000        0.00000224        0.00000194        0.00000001
     117         -0.641851        2.000000        0.00141061        0.00018518        0.00000267
     118         -0.641683        2.000000        0.00000202        0.00001281        0.00000020
     119         -0.641305        2.000000        0.00050114        0.00022464        0.00000111
     120         -0.641072        2.000000        0.00000456        0.00004907        0.00000114
     121         -0.640960        2.000000        0.00995273        0.00147145        0.00003263
     122         -0.640793        2.000000        0.00000961        0.00003237        0.00000082
     123         -0.640578        2.000000        0.00152172        0.00033632        0.00000423
     124         -0.640464        2.000000        0.00245114        0.00084946        0.00000416
     125         -0.640169        2.000000        0.00018578        0.00052697        0.00000444
     126         -0.639736        2.000000        0.00008250        0.00034903        0.00000432
     127         -0.639499        2.000000        0.00023179        0.00047029        0.00000555
     128         -0.639154        2.000000        0.00024075        0.00005252        0.00000026
     129         -0.639060        2.000000        0.00029409        0.00075276        0.00000774
     130         -0.638976        2.000000        0.00041231        0.00025595        0.00000237
     131         -0.638593        2.000000        0.00009808        0.00003822        0.00000018
     132         -0.638261        2.000000        0.00000126        0.00000148        0.00000002
     133         -0.638059        2.000000        0.00005548        0.00001765        0.00000004
     134         -0.637912        2.000000        0.00011926        0.00003963        0.00000016
     135         -0.637762        2.000000        0.00000070        0.00000084        0.00000001
     136         -0.637584        2.000000        0.00068591        0.00006370        0.00000144
     137         -0.636804        2.000000        0.00001371        0.00000273        0.00000005
     138         -0.636640        2.000000        0.00009690        0.00008409        0.00000141
     139         -0.636429        2.000000        0.00298131        0.00045925        0.00000393
     140         -0.635515        2.000000        0.00063855        0.00014090        0.00000052
     141         -0.634989        2.000000        0.00244087        0.00042203        0.00000694
     142         -0.634462        2.000000        0.00000480        0.00001773        0.00000036
     143         -0.634132        2.000000        0.00010713        0.00002446        0.00000050
     144         -0.633763        2.000000        0.00184258        0.00032711        0.00000338
     145         -0.633531        2.000000        0.00000043        0.00000012        0.00000000
     146         -0.632585        2.000000        0.00000426        0.00000370        0.00000000
     147         -0.632333        2.000000        0.00034977        0.00007595        0.00000039
     148         -0.632031        2.000000        0.00000946        0.00005155        0.00000014
     149         -0.631841        2.000000        0.00000144        0.00000488        0.00000006
     150         -0.631318        2.000000        0.00007312        0.00001086        0.00000018
     151         -0.630640        2.000000        0.00044400        0.00006992        0.00000100
     152         -0.630519        2.000000        0.00011649        0.00002274        0.00000024
     153         -0.630490        2.000000        0.00001513        0.00000346        0.00000003
     154         -0.629959        2.000000        0.00007074        0.00003121        0.00000083
     155         -0.629452        2.000000        0.00028956        0.00003266        0.00000170
     156         -0.629210        2.000000        0.00000445        0.00000044        0.00000002
     157         -0.628856        2.000000        0.00000337        0.00000394        0.00000009
     158         -0.628516        2.000000        0.00011804        0.00003220        0.00000018
     159         -0.628511        2.000000        0.00000827        0.00000361        0.00000001
     160         -0.628382        2.000000        0.00000252        0.00000141        0.00000000
     161         -0.628242        2.000000        0.00008334        0.00008511        0.00000035
     162         -0.628026        2.000000        0.00001616        0.00004038        0.00000032
     163         -0.627712        2.000000        0.00022451        0.00006095        0.00000017
     164         -0.627438        2.000000        0.00012140        0.00003377        0.00000057
     165         -0.627281        2.000000        0.00002138        0.00001085        0.00000000
     166         -0.626983        2.000000        0.00033762        0.00007888        0.00000023
     167         -0.626804        2.000000        0.00006614        0.00003857        0.00000007
     168         -0.626588        2.000000        0.00005280        0.00001140        0.00000005
     169         -0.626019        2.000000        0.00097232        0.00020274        0.00000082
     170         -0.625843        2.000000        0.00000049        0.00000058        0.00000000
     171         -0.625019        2.000000        0.00007564        0.00001735        0.00000006
     172         -0.624831        2.000000        0.00026707        0.00005017        0.00000150
     173         -0.624166        2.000000        0.00553679        0.00157388        0.00000227
     174         -0.623906        2.000000        0.00017333        0.00004486        0.00000010
     175         -0.623799        2.000000        0.00059598        0.00016731        0.00000027
     176         -0.623716        2.000000        0.00004767        0.00001531        0.00000002
     177         -0.623382        2.000000        0.00306910        0.00077410        0.00000191
     178         -0.623067        2.000000        0.00000099        0.00000047        0.00000000
     179         -0.622801        2.000000        0.00036700        0.00015502        0.00000026
     180         -0.622617        2.000000        0.00527548        0.00147030        0.00000240
     181         -0.622499        2.000000        0.00058553        0.00015575        0.00000032
     182         -0.621672        2.000000        0.00009464        0.00002816        0.00000005
     183         -0.621151        2.000000        0.00018030        0.00004883        0.00000013
     184         -0.620781        2.000000        0.00040738        0.00010791        0.00000034
     185         -0.620579        2.000000        0.00001544        0.00000311        0.00000012
     186         -0.619930        2.000000        0.00002080        0.00000357        0.00000006
     187         -0.618694        2.000000        0.00000008        0.00000005        0.00000000
     188         -0.618461        2.000000        0.00014921        0.00006062        0.00000007
     189         -0.618211        2.000000        0.00000735        0.00000246        0.00000000
     190         -0.617957        2.000000        0.00029304        0.00009475        0.00000016
     191         -0.617770        2.000000        0.00026815        0.00007057        0.00000026
     192         -0.617636        2.000000        0.00010252        0.00004207        0.00000007
     193         -0.617200        2.000000        0.00019887        0.00005538        0.00000017
     194         -0.616810        2.000000        0.00017208        0.00011035        0.00000042
     195         -0.615618        2.000000        0.00190846        0.00107464        0.00000296
     196         -0.615377        2.000000        0.00000321        0.00000569        0.00000007
     197         -0.615228        2.000000        0.00095795        0.00063904        0.00000233
     198         -0.614941        2.000000        0.00000014        0.00000003        0.00000000
     199         -0.613862        2.000000        0.00812145        0.00189497        0.00001325
     200         -0.613167        2.000000        0.00225458        0.00062356        0.00000241
     201         -0.612937        2.000000        0.00000099        0.00000025        0.00000000
     202         -0.612465        2.000000        0.00002231        0.00000926        0.00000004
     203         -0.611371        2.000000        0.00001356        0.00003346        0.00000058
     204         -0.611273        2.000000        0.00028657        0.00041343        0.00000502
     205         -0.610903        2.000000        0.00000123        0.00000813        0.00000030
     206         -0.609912        2.000000        0.00001594        0.00000446        0.00000002
     207         -0.609442        2.000000        0.00000001        0.00000000        0.00000000
     208         -0.609149        2.000000        0.01142707        0.00298414        0.00001653
     209         -0.608882        2.000000        0.59778635        0.15704846        0.00085773
     210         -0.608562        2.000000        0.00479025        0.00124646        0.00000740
     211         -0.608012        2.000000        0.02722968        0.00736312        0.00003756
     212         -0.607014        2.000000        0.00000241        0.00000108        0.00000000
     213         -0.606300        2.000000        0.00054928        0.00015290        0.00000076
     214         -0.605948        2.000000        0.00000270        0.00000087        0.00000000
     215         -0.605403        2.000000        0.00000562        0.00000176        0.00000001
     216         -0.604664        2.000000        0.00059783        0.00017935        0.00000076
     217         -0.604080        2.000000        0.00266581        0.00077424        0.00000371
     218         -0.603538        2.000000        0.00414342        0.00121804        0.00000565
     219         -0.603145        2.000000        0.00001701        0.00000582        0.00000002
     220         -0.602213        2.000000        0.00235264        0.00067923        0.00000360
     221         -0.601871        2.000000        0.00028349        0.00008265        0.00000044
     222         -0.600521        2.000000        0.00001470        0.00000395        0.00000004
     223         -0.599848        2.000000        0.00022665        0.00005788        0.00000104
     224         -0.598111        2.000000        0.00004817        0.00001600        0.00000008
     225         -0.597286        2.000000        0.00003452        0.00001491        0.00000006
     226         -0.597121        2.000000        0.00001760        0.00001130        0.00000007
     227         -0.595585        2.000000        0.00002855        0.00000795        0.00000007
     228         -0.591103        2.000000        0.00000000        0.00000000        0.00000000
     229         -0.582585        2.000000        0.00000000        0.00000000        0.00000000
     230         -0.576283        2.000000        0.00000012        0.00000007        0.00000000
     231         -0.258156        2.000000        0.00000000        0.00000000        0.00000000
     232         -0.253473        2.000000        0.00000000        0.00000000        0.00000000
     233         -0.246233        2.000000        0.00000000        0.00000000        0.00000000
     234         -0.244651        2.000000        0.00000000        0.00000000        0.00000000
     235         -0.243092        2.000000        0.00000000        0.00000000        0.00000000
     236         -0.242544        2.000000        0.00000004        0.00000022        0.00000000
     237         -0.241048        2.000000        0.00000000        0.00000000        0.00000000
     238         -0.240546        2.000000        0.00000000        0.00000000        0.00000000
     239         -0.237982        2.000000        0.00000000        0.00000000        0.00000000
     240         -0.237798        2.000000        0.00000165        0.00001609        0.00000019
     241         -0.236566        2.000000        0.00000077        0.00000308        0.00000006
     242         -0.235920        2.000000        0.00000074        0.00000353        0.00000006
     243         -0.233145        2.000000        0.00015900        0.00216912        0.00002524
     244         -0.232785        2.000000        0.00000002        0.00000015        0.00000000
     245         -0.232224        2.000000        0.00000035        0.00000457        0.00000005
     246         -0.232174        2.000000        0.00093693        0.01279785        0.00013856
     247         -0.232015        2.000000        0.00082238        0.01114018        0.00012936
     248         -0.230744        2.000000        0.00012158        0.00080057        0.00002224
     249         -0.230697        2.000000        0.00000062        0.00000376        0.00000011
     250         -0.229959        2.000000        0.00384851        0.01162209        0.00062139
     251         -0.229741        2.000000        0.00000108        0.00000306        0.00000017
     252         -0.228898        2.000000        0.00000016        0.00000045        0.00000003
     253         -0.227939        2.000000        0.00000002        0.00000014        0.00000000
     254         -0.227542        2.000000        0.00000000        0.00000001        0.00000000
     255         -0.227010        2.000000        0.00000000        0.00000000        0.00000000
     256         -0.226860        2.000000        0.00000606        0.00004995        0.00000122
     257         -0.226780        2.000000        0.00000000        0.00000001        0.00000000
     258         -0.226656        2.000000        0.00000000        0.00000001        0.00000000
     259         -0.226503        2.000000        0.00004915        0.00017532        0.00000270
     260         -0.226036        2.000000        0.00000000        0.00000001        0.00000000
     261         -0.225667        2.000000        0.00000570        0.00003091        0.00000037
     262         -0.225511        2.000000        0.00001757        0.00014540        0.00000122
     263         -0.224716        2.000000        0.00000002        0.00000010        0.00000000
     264         -0.224218        2.000000        0.00000001        0.00000004        0.00000000
     265         -0.223677        2.000000        0.00003837        0.00014757        0.00000570
     266         -0.223438        2.000000        0.00000003        0.00000012        0.00000000
     267         -0.223292        2.000000        0.00000011        0.00000064        0.00000000
     268         -0.223025        2.000000        0.00000001        0.00000003        0.00000000
     269         -0.222436        2.000000        0.00000001        0.00000004        0.00000000
     270         -0.222159        2.000000        0.00004782        0.00018177        0.00000735
     271         -0.221905        2.000000        0.00000003        0.00000013        0.00000001
     272         -0.221185        2.000000        0.00000634        0.00001570        0.00000075
     273         -0.220659        2.000000        0.00000001        0.00000007        0.00000000
     274         -0.219665        2.000000        0.00000016        0.00000101        0.00000003
     275         -0.219630        2.000000        0.00000155        0.00001851        0.00000016
     276         -0.218916        2.000000        0.00000006        0.00000040        0.00000001
     277         -0.218551        2.000000        0.00000488        0.00006350        0.00000091
     278         -0.218398        2.000000        0.00000158        0.00005663        0.00000020
     279         -0.218139        2.000000        0.00007373        0.00103197        0.00001136
     280         -0.217698        2.000000        0.00000283        0.00002354        0.00000042
     281         -0.217580        2.000000        0.00022672        0.00117546        0.00002782
     282         -0.217435        2.000000        0.00000799        0.00003323        0.00000079
     283         -0.216483        2.000000        0.00000633        0.00001699        0.00000041
     284         -0.216363        2.000000        0.00070572        0.00181568        0.00004633
     285         -0.216254        2.000000        0.00000680        0.00001843        0.00000044
     286         -0.215958        2.000000        0.00034191        0.00211726        0.00002371
     287         -0.215645        2.000000        0.00015188        0.00123104        0.00000825
     288         -0.215217        2.000000        0.00000022        0.00000091        0.00000002
     289         -0.214936        2.000000        0.00000000        0.00000001        0.00000000
     290         -0.214221        2.000000        0.00000022        0.00000108        0.00000001
     291         -0.213816        2.000000        0.00000032        0.00000183        0.00000002
     292         -0.213592        2.000000        0.00010569        0.00069049        0.00002379
     293         -0.213468        2.000000        0.00000004        0.00000082        0.00000001
     294         -0.213241        2.000000        0.00000411        0.00001815        0.00000019
     295         -0.213184        2.000000        0.00002790        0.00011832        0.00000312
     296         -0.212817        2.000000        0.00009408        0.00045235        0.00001379
     297         -0.212583        2.000000        0.00000020        0.00000176        0.00000004
     298         -0.212273        2.000000        0.00003956        0.00013150        0.00000419
     299         -0.211896        2.000000        0.00000052        0.00000170        0.00000004
     300         -0.211391        2.000000        0.00000495        0.00002357        0.00000073
     301         -0.211339        2.000000        0.00001775        0.00006879        0.00000078
     302         -0.211269        2.000000        0.00004872        0.00018928        0.00000255
     303         -0.211046        2.000000        0.00001489        0.00007030        0.00000142
     304         -0.210412        2.000000        0.00000150        0.00002365        0.00000023
     305         -0.210309        2.000000        0.00008917        0.00030312        0.00001105
     306         -0.210188        2.000000        0.00006241        0.00018467        0.00000805
     307         -0.210166        2.000000        0.00013604        0.00038718        0.00001352