# Projected DOS for list 113 of 3 atoms, at iteration step i = 0, E(Fermi) =     0.101540 a.u.
#     MO Eigenvalue [a.u.]      Occupation                 s                 p                 d
       1         -0.708367        2.000000        0.00000000        0.00000000        0.00000000
       2         -0.696979        2.000000        0.00000003        0.00000006        0.00000000
       3         -0.695301        2.000000        0.00000000        0.00000000        0.00000000
       4         -0.694902        2.000000        0.00000000        0.00000000        0.00000000
       5         -0.690081        2.000000        0.00000000        0.00000000        0.00000000
       6         -0.686805        2.000000        0.00000060        0.00000085        0.00000001
       7         -0.686571        2.000000        0.00000002        0.00000003        0.00000000
       8         -0.685003        2.000000        0.00000005        0.00000005        0.00000000
       9         -0.684036        2.000000        0.00000230        0.00000253        0.00000002
      10         -0.683920        2.000000        0.00000000        0.00000000        0.00000000
      11         -0.681735        2.000000        0.00001070        0.00001218        0.00000011
      12         -0.679408        2.000000        0.00000006        0.00000005        0.00000000
      13         -0.678932        2.000000        0.00000006        0.00000006        0.00000000
      14         -0.678381        2.000000        0.00000031        0.00000016        0.00000000
      15         -0.677963        2.000000        0.00000199        0.00000209        0.00000002
      16         -0.677540        2.000000        0.00000548        0.00000612        0.00000007
      17         -0.677381        2.000000        0.00000002        0.00000002        0.00000000
      18         -0.677246        2.000000        0.00000205        0.00000249        0.00000003
      19         -0.675827        2.000000        0.00000049        0.00000051        0.00000001
      20         -0.675724        2.000000        0.00000000        0.00000001        0.00000000
      21         -0.674932        2.000000        0.00000001        0.00000001        0.00000000
      22         -0.674380        2.000000        0.00000269        0.00000155        0.00000002
      23         -0.673393        2.000000        0.00000030        0.00000015        0.00000000
      24         -0.672924        2.000000        0.00000034        0.00000025        0.00000000
      25         -0.672289        2.000000        0.00000002        0.00000004        0.00000000
      26         -0.672227        2.000000        0.00000542        0.00000090        0.00000001
      27         -0.671275        2.000000        0.00000118        0.00000077        0.00000002
      28         -0.670770        2.000000        0.00000844        0.00000315        0.00000005
      29         -0.670400        2.000000        0.00000005        0.00000011        0.00000000
      30         -0.669922        2.000000        0.00000680        0.00000151        0.00000003
      31         -0.669606        2.000000        0.00001411        0.00000670        0.00000006
      32         -0.668947        2.000000        0.00008023        0.00001443        0.00000032
      33         -0.668931        2.000000        0.00002681        0.00001199        0.00000016
      34         -0.668431        2.000000        0.00007720        0.00001958        0.00000031
      35         -0.668008        2.000000        0.00000086        0.00000617        0.00000011
      36         -0.667083        2.000000        0.00000248        0.00000205        0.00000002
      37         -0.666996        2.000000        0.00000200        0.00000067        0.00000002
      38         -0.666939        2.000000        0.00001123        0.00000366        0.00000007
      39         -0.666646        2.000000        0.00104389        0.00052362        0.00000966
      40         -0.666363        2.000000        0.00041359        0.00016563        0.00000329
      41         -0.666281        2.000000        0.00000013        0.00000093        0.00000001
      42         -0.666129        2.000000        0.00004808        0.00005815        0.00000099
      43         -0.665867        2.000000        0.00003219        0.00000611        0.00000015
      44         -0.664404        2.000000        0.00000049        0.00000222        0.00000005
      45         -0.664061        2.000000        0.00001273        0.00001689        0.00000032
      46         -0.663948        2.000000        0.00016173        0.00006959        0.00000072
      47         -0.663550        2.000000        0.00000074        0.00001051        0.00000015
      48         -0.662943        2.000000        0.00000042        0.00000055        0.00000001
      49         -0.662627        2.000000        0.00000056        0.00000016        0.00000001
      50         -0.661965        2.000000        0.00000507        0.00000378        0.00000008
      51         -0.661528        2.000000        0.00002120        0.00000402        0.00000015
      52         -0.660900        2.000000        0.00021201        0.00013040        0.00000503
      53         -0.660166        2.000000        0.00000291        0.00000095        0.00000002
      54         -0.659683        2.000000        0.00000719        0.00000349        0.00000007
      55         -0.658835        2.000000        0.00004219        0.00002511        0.00000034
      56         -0.658814        2.000000        0.00000148        0.00000073        0.00000002
      57         -0.658691        2.000000        0.00000442        0.00000103        0.00000004
      58         -0.658084        2.000000        0.00021132        0.00003581        0.00000103
      59         -0.658073        2.000000        0.00000335        0.00002196        0.00000018
      60         -0.657975        2.000000        0.00007121        0.00003644        0.00000037
      61         -0.657678        2.000000        0.00046538        0.00009882        0.00000237
      62         -0.657592        2.000000        0.00020242        0.00008730        0.00000145
      63         -0.657226        2.000000        0.00002770        0.00001192        0.00000058
      64         -0.657087        2.000000        0.00023515        0.00002721        0.00000094
      65         -0.656742        2.000000        0.00113971        0.00016135        0.00000418
      66         -0.656449        2.000000        0.00001422        0.00000487        0.00000009
      67         -0.656215        2.000000        0.00040160        0.00004621        0.00000168
      68         -0.655700        2.000000        0.00164512        0.00031400        0.00000627
      69         -0.655174        2.000000        0.00000061        0.00000461        0.00000016
      70         -0.654827        2.000000        0.00042721        0.00006936        0.00000201
      71         -0.654660        2.000000        0.00001014        0.00000346        0.00000019
      72         -0.654406        2.000000        0.00007429        0.00001806        0.00000046
      73         -0.654250        2.000000        0.00060289        0.00013174        0.00000325
      74         -0.653619        2.000000        0.00024690        0.00002710        0.00000093
      75         -0.653105        2.000000        0.01352634        0.00142187        0.00005145
      76         -0.652904        2.000000        0.00729529        0.00075922        0.00002845
      77         -0.652612        2.000000        0.00000346        0.00002300        0.00000021
      78         -0.652411        2.000000        0.00071913        0.00007194        0.00000278
      79         -0.652213        2.000000        0.00358089        0.00049065        0.00001575
      80         -0.652083        2.000000        0.01706573        0.00234304        0.00007358
      81         -0.651807        2.000000        0.01160195        0.00186711        0.00005050
      82         -0.651706        2.000000        0.00073171        0.00011757        0.00000312
      83         -0.651237        2.000000        0.00722165        0.00214041        0.00004129
      84         -0.651053        2.000000        0.00247276        0.00083491        0.00001480
      85         -0.650411        2.000000        0.00100438        0.00135274        0.00001471
      86         -0.650326        2.000000        0.00020905        0.00059184        0.00000560
      87         -0.650219        2.000000        0.00036025        0.00009988        0.00000206
      88         -0.650130        2.000000        0.00070708        0.00049386        0.00000650
      89         -0.649849        2.000000        0.00085442        0.00228364        0.00002210
      90         -0.649510        2.000000        0.00020060        0.00043159        0.00000427
      91         -0.648737        2.000000        0.00049962        0.00213813        0.00001966
      92         -0.648608        2.000000        0.00015818        0.00043795        0.00000441
      93         -0.648509        2.000000        0.00135380        0.00022341        0.00000491
      94         -0.648091        2.000000        0.00002698        0.00015951        0.00000158
      95         -0.647956        2.000000        0.00000071        0.00000523        0.00000011
      96         -0.647875        2.000000        0.00003297        0.00006644        0.00000068
      97         -0.647628        2.000000        0.00007056        0.00023481        0.00000219
      98         -0.647248        2.000000        0.00002648        0.00012608        0.00000108
      99         -0.646997        2.000000        0.00002068        0.00006017        0.00000201
     100         -0.646893        2.000000        0.00002335        0.00003770        0.00000113
     101         -0.646794        2.000000        0.00055422        0.00044936        0.00000371
     102         -0.645843        2.000000        0.00013182        0.00039947        0.00000453
     103         -0.645519        2.000000        0.00011257        0.00028438        0.00000350
     104         -0.645232        2.000000        0.00067614        0.00042115        0.00001279
     105         -0.644964        2.000000        0.00096716        0.00008614        0.00000317
     106         -0.644451        2.000000        0.00012166        0.00029741        0.00000574
     107         -0.644170        2.000000        0.00189944        0.00019534        0.00000676
     108         -0.643891        2.000000        0.00024982        0.00005230        0.00000124
     109         -0.643862        2.000000        0.00073745        0.00034495        0.00000563
     110         -0.643478        2.000000        0.00019489        0.00004781        0.00000099
     111         -0.643325        2.000000        0.00002263        0.00006011        0.00000094
     112         -0.642934        2.000000        0.00034589        0.00024928        0.00000207
     113         -0.642899        2.000000        0.00001666        0.00000429        0.00000009
     114         -0.642460        2.000000        0.00008264        0.00001642        0.00000038
     115         -0.642175        2.000000        0.00022577        0.00025129        0.00000250
     116         -0.642120        2.000000        0.00036895        0.00009008        0.00000145
     117         -0.641851        2.000000        0.00018181        0.00005068        0.00000064
     118         -0.641683        2.000000        0.00008080        0.00004361        0.00000066
     119         -0.641305        2.000000        0.00668739        0.00381852        0.00004135
     120         -0.641072        2.000000        0.00014243        0.00024328        0.00000228
     121         -0.640960        2.000000        0.00006485        0.00002966        0.00000029
     122         -0.640793        2.000000        0.00063777        0.00070775        0.00000754
     123         -0.640578        2.000000        0.00010899        0.00026479        0.00000297
     124         -0.640464        2.000000        0.00078925        0.00042218        0.00000671
     125         -0.640169        2.000000        0.00008637        0.00005953        0.00000051
     126         -0.639736        2.000000        0.00012237        0.00008912        0.00000207
     127         -0.639499        2.000000        0.00085472        0.00059096        0.00000822
     128         -0.639154        2.000000        0.00017747        0.00017408        0.00000195
     129         -0.639060        2.000000        0.00000205        0.00001062        0.00000017
     130         -0.638976        2.000000        0.00029448        0.00023853        0.00000274
     131         -0.638593        2.000000        0.00037132        0.00060962        0.00001068
     132         -0.638261        2.000000        0.00010065        0.00001957        0.00000053
     133         -0.638059        2.000000        0.00579198        0.00096832        0.00001915
     134         -0.637912        2.000000        0.00027978        0.00076872        0.00000847
     135         -0.637762        2.000000        0.00031601        0.00006807        0.00000114
     136         -0.637584        2.000000        0.00095947        0.00048038        0.00000538
     137         -0.636804        2.000000        0.00026455        0.00016278        0.00000197
     138         -0.636640        2.000000        0.00541150        0.00235286        0.00003002
     139         -0.636429        2.000000        0.00816929        0.00325006        0.00003839
     140         -0.635515        2.000000        0.00149099        0.00048396        0.00000627
     141         -0.634989        2.000000        0.00240690        0.00085463        0.00000833
     142         -0.634462        2.000000        0.00036819        0.00010143        0.00000131
     143         -0.634132        2.000000        0.00108188        0.00019336        0.00000313
     144         -0.633763        2.000000        0.00042511        0.00011890        0.00000089
     145         -0.633531        2.000000        0.00001653        0.00000579        0.00000008
     146         -0.632585        2.000000        0.00001081        0.00000977        0.00000006
     147         -0.632333        2.000000        0.00118316        0.00090521        0.00001571
     148         -0.632031        2.000000        0.00002572        0.00001355        0.00000009
     149         -0.631841        2.000000        0.00000510        0.00002792        0.00000056
     150         -0.631318        2.000000        0.00005752        0.00008430        0.00000106
     151         -0.630640        2.000000        0.00000544        0.00001398        0.00000062
     152         -0.630519        2.000000        0.00000511        0.00002022        0.00000051
     153         -0.630490        2.000000        0.00000166        0.00000566        0.00000011
     154         -0.629959        2.000000        0.00004012        0.00002078        0.00000014
     155         -0.629452        2.000000        0.00016352        0.00005250        0.00000014
     156         -0.629210        2.000000        0.00014555        0.00008732        0.00000090
     157         -0.628856        2.000000        0.00000232        0.00000182        0.00000004
     158         -0.628516        2.000000        0.00104984        0.00077759        0.00000823
     159         -0.628511        2.000000        0.00035744        0.00017040        0.00000218
     160         -0.628382        2.000000        0.00003156        0.00008701        0.00000200
     161         -0.628242        2.000000        0.00007316        0.00001754        0.00000007
     162         -0.628026        2.000000        0.00149269        0.00081340        0.00001004
     163         -0.627712        2.000000        0.00091714        0.00028643        0.00000707
     164         -0.627438        2.000000        0.00095290        0.00032203        0.00000215
     165         -0.627281        2.000000        0.00203821        0.00117788        0.00000845
     166         -0.626983        2.000000        0.00003079        0.00009394        0.00000124
     167         -0.626804        2.000000        0.00004855        0.00001968        0.00000024
     168         -0.626588        2.000000        0.00451182        0.00210496        0.00001345
     169         -0.626019        2.000000        0.00003684        0.00001238        0.00000005
     170         -0.625843        2.000000        0.01802706        0.00715039        0.00004104
     171         -0.625019        2.000000        0.01344671        0.00457699        0.00002874
     172         -0.624831        2.000000        0.00005991        0.00008871        0.00000421
     173         -0.624166        2.000000        0.00002842        0.00002957        0.00000074
     174         -0.623906        2.000000        0.00091332        0.00030484        0.00000227
     175         -0.623799        2.000000        0.00005120        0.00003406        0.00000011
     176         -0.623716        2.000000        0.02325646        0.00990384        0.00003581
     177         -0.623382        2.000000        0.00003681        0.00014039        0.00000143
     178         -0.623067        2.000000        0.00000011        0.00000179        0.00000009
     179         -0.622801        2.000000        0.00013520        0.00029718        0.00002002
     180         -0.622617        2.000000        0.00011647        0.00011373        0.00000499
     181         -0.622499        2.000000        0.00077565        0.00154549        0.00002463
     182         -0.621672        2.000000        0.00002846        0.00033417        0.00002161
     183         -0.621151        2.000000        0.00027596        0.00023343        0.00001046
     184         -0.620781        2.000000        0.00012192        0.00013074        0.00000395
     185         -0.620579        2.000000        0.00029295        0.00017265        0.00000753
     186         -0.619930        2.000000        0.00007367        0.00003326        0.00000069
     187         -0.618694        2.000000        0.00000036        0.00000291        0.00000010
     188         -0.618461        2.000000        0.00249313        0.00147883        0.00002015
     189         -0.618211        2.000000        0.00000213        0.00000134        0.00000005
     190         -0.617957        2.000000        0.00092211        0.00063237        0.00001137
     191         -0.617770        2.000000        0.00435594        0.00240164        0.00002695
     192         -0.617636        2.000000        0.00026504        0.00016556        0.00000044
     193         -0.617200        2.000000        0.00190183        0.00081665        0.00000378
     194         -0.616810        2.000000        0.00013112        0.00003087        0.00000066
     195         -0.615618        2.000000        0.00010105        0.00002777        0.00000112
     196         -0.615377        2.000000        0.00016066        0.00008707        0.00000213
     197         -0.615228        2.000000        0.00016283        0.00004933        0.00000045
     198         -0.614941        2.000000        0.00000873        0.00000323        0.00000004
     199         -0.613862        2.000000        0.00000387        0.00004872        0.00000166
     200         -0.613167        2.000000        0.00000315        0.00003630        0.00000107
     201         -0.612937        2.000000        0.00000475        0.00000162        0.00000004
     202         -0.612465        2.000000        0.00000327        0.00002522        0.00000002
     203         -0.611371        2.000000        0.00513569        0.00130926        0.00001479
     204         -0.611273        2.000000        0.00035331        0.00008833        0.00000146
     205         -0.610903        2.000000        0.00040969        0.00013160        0.00000057
     206         -0.609912        2.000000        0.01111788        0.00323208        0.00001485
     207         -0.609442        2.000000        0.02063899        0.00537654        0.00003810
     208         -0.609149        2.000000        0.04615658        0.01299197        0.00008005
     209         -0.608882        2.000000        0.00254786        0.00070662        0.00000451
     210         -0.608562        2.000000        0.00008172        0.00002077        0.00000028
     211         -0.608012        2.000000        0.00976428        0.00271608        0.00001693
     212         -0.607014        2.000000        0.13036994        0.03772028        0.00018765
     213         -0.606300        2.000000        0.00551122        0.00157005        0.00000913
     214         -0.605948        2.000000        0.00010727        0.00003604        0.00000007
     215         -0.605403        2.000000        0.00007434        0.00002311        0.00000009
     216         -0.604664        2.000000        0.00663078        0.00199530        0.00000882
     217         -0.604080        2.000000        0.02711310        0.00866006        0.00002785
     218         -0.603538        2.000000        0.01456884        0.00493693        0.00001251
     219         -0.603145        2.000000        0.16646820        0.05506011        0.00015592
     220         -0.602213        2.000000        0.00100945        0.00037058        0.00000093
     221         -0.601871        2.000000        0.01580990        0.00484535        0.00002226
     222         -0.600521        2.000000        0.00003143        0.00001428        0.00000003
     223         -0.599848        2.000000        0.00067596        0.00021982        0.00000092
     224         -0.598111        2.000000        0.01565911        0.00424564        0.00006687
     225         -0.597286        2.000000        0.05340690        0.01511897        0.00016820
     226         -0.597121        2.000000        0.02192160        0.00634011        0.00006138
     227         -0.595585        2.000000        0.00003429        0.00000942        0.00000012
     228         -0.591103        2.000000        0.00962637        0.00270219        0.00006431
     229         -0.582585        2.000000        0.00000011        0.00000009        0.00000000
     230         -0.576283        2.000000        0.00000155        0.00000064        0.00000001
     231         -0.258156        2.000000        0.00000000        0.00000000        0.00000000
     232         -0.253473        2.000000        0.00000002        0.00000005        0.00000000
     233         -0.246233        2.000000        0.00000000        0.00000000        0.00000000
     234         -0.244651        2.000000        0.00000000        0.00000000        0.00000000
     235         -0.243092        2.000000        0.00000000        0.00000000        0.00000000
     236         -0.242544        2.000000        0.00000000        0.00000000        0.00000000
     237         -0.241048        2.000000        0.00000001        0.00000006        0.00000000
     238         -0.240546        2.000000        0.00000138        0.00001200        0.00000013
     239         -0.237982        2.000000        0.00000810        0.00001751        0.00000059
     240         -0.237798        2.000000        0.00000000        0.00000000        0.00000000
     241         -0.236566        2.000000        0.00000000        0.00000000        0.00000000
     242         -0.235920        2.000000        0.00000000        0.00000001        0.00000000
     243         -0.233145        2.000000        0.00000000        0.00000000        0.00000000
     244         -0.232785        2.000000        0.00000001        0.00000075        0.00000000
     245         -0.232224        2.000000        0.00000009        0.00000030        0.00000001
     246         -0.232174        2.000000        0.00000000        0.00000001        0.00000000
     247         -0.232015        2.000000        0.00000000        0.00000001        0.00000000
     248         -0.230744        2.000000        0.00000000        0.00000000        0.00000000
     249         -0.230697        2.000000        0.00000010        0.00000020        0.00000001
     250         -0.229959        2.000000        0.00000001        0.00000003        0.00000000
     251         -0.229741        2.000000        0.00000073        0.00000162        0.00000005
     252         -0.228898        2.000000        0.00000046        0.00000161        0.00000003
     253         -0.227939        2.000000        0.00000841        0.00004692        0.00000056
     254         -0.227542        2.000000        0.00000138        0.00000425        0.00000009
     255         -0.227010        2.000000        0.00000014        0.00000272        0.00000002
     256         -0.226860        2.000000        0.00000001        0.00000010        0.00000000
     257         -0.226780        2.000000        0.00000010        0.00000572        0.00000002
     258         -0.226656        2.000000        0.00001623        0.00006369        0.00000133
     259         -0.226503        2.000000        0.00000002        0.00000007        0.00000000
     260         -0.226036        2.000000        0.00000068        0.00000208        0.00000005
     261         -0.225667        2.000000        0.00000003        0.00000011        0.00000000
     262         -0.225511        2.000000        0.00000718        0.00002576        0.00000054
     263         -0.224716        2.000000        0.00000001        0.00000053        0.00000000
     264         -0.224218        2.000000        0.00000123        0.00000466        0.00000010
     265         -0.223677        2.000000        0.00000000        0.00000001        0.00000000
     266         -0.223438        2.000000        0.00000017        0.00000205        0.00000001
     267         -0.223292        2.000000        0.00001584        0.00005554        0.00000135
     268         -0.223025        2.000000        0.00000001        0.00000024        0.00000000
     269         -0.222436        2.000000        0.00000000        0.00000002        0.00000000
     270         -0.222159        2.000000        0.00000000        0.00000000        0.00000000
     271         -0.221905        2.000000        0.00000019        0.00000086        0.00000002
     272         -0.221185        2.000000        0.00000002        0.00000008        0.00000000
     273         -0.220659        2.000000        0.00000037        0.00000196        0.00000002
     274         -0.219665        2.000000        0.00000100        0.00000239        0.00000007
     275         -0.219630        2.000000        0.00000011        0.00000041        0.00000001
     276         -0.218916        2.000000        0.00000092        0.00000259        0.00000007
     277         -0.218551        2.000000        0.00000011        0.00000032        0.00000001
     278         -0.218398        2.000000        0.00000005        0.00000019        0.00000000
     279         -0.218139        2.000000        0.00000021        0.00000052        0.00000001
     280         -0.217698        2.000000        0.00000072        0.00000294        0.00000005
     281         -0.217580        2.000000        0.00000013        0.00000020        0.00000000
     282         -0.217435        2.000000        0.00000092        0.00000291        0.00000007
     283         -0.216483        2.000000        0.00001370        0.00006415        0.00000103
     284         -0.216363        2.000000        0.00000058        0.00000317        0.00000005
     285         -0.216254        2.000000        0.00000064        0.00000414        0.00000006
     286         -0.215958        2.000000        0.00000024        0.00000140        0.00000002
     287         -0.215645        2.000000        0.00000001        0.00000009        0.00000000
     288         -0.215217        2.000000        0.00100462        0.00442226        0.00008036
     289         -0.214936        2.000000        0.00001696        0.00005782        0.00000136
     290         -0.214221        2.000000        0.00024007        0.00116030        0.00001882
     291         -0.213816        2.000000        0.00001695        0.00009716        0.00000138
     292         -0.213592        2.000000        0.00000028        0.00000129        0.00000002
     293         -0.213468        2.000000        0.00007973        0.00034548        0.00000624
     294         -0.213241        2.000000        0.00000197        0.00000870        0.00000007
     295         -0.213184        2.000000        0.00000053        0.00000210        0.00000004
     296         -0.212817        2.000000        0.00000001        0.00000012        0.00000000
     297         -0.212583        2.000000        0.00001663        0.00010484        0.00000123
     298         -0.212273        2.000000        0.00000020        0.00000096        0.00000001
     299         -0.211896        2.000000        0.00000456        0.00002515        0.00000036
     300         -0.211391        2.000000        0.00005775        0.00023618        0.00000405
     301         -0.211339        2.000000        0.00008281        0.00049645        0.00000747
     302         -0.211269        2.000000        0.00023023        0.00083218        0.00001070
     303         -0.211046        2.000000        0.00000716        0.00002943        0.00000049
     304         -0.210412        2.000000        0.00000462        0.00005689        0.00000014
     305         -0.210309        2.000000        0.00000433        0.00002961        0.00000009
     306         -0.210188        2.000000        0.00003964        0.00026101        0.00000008
     307         -0.210166        2.000000        0.00009017        0.00061835        0.00000010