# Projected DOS for list 176 of 3 atoms, at iteration step i = 0, E(Fermi) =     0.101540 a.u.
#     MO Eigenvalue [a.u.]      Occupation                 s                 p                 d
       1         -0.708367        2.000000        0.00000000        0.00000000        0.00000000
       2         -0.696979        2.000000        0.00000000        0.00000000        0.00000000
       3         -0.695301        2.000000        0.00000000        0.00000000        0.00000000
       4         -0.694902        2.000000        0.00000018        0.00000017        0.00000000
       5         -0.690081        2.000000        0.00005004        0.00002393        0.00000028
       6         -0.686805        2.000000        0.00000000        0.00000000        0.00000000
       7         -0.686571        2.000000        0.00000000        0.00000000        0.00000000
       8         -0.685003        2.000000        0.00000000        0.00000000        0.00000000
       9         -0.684036        2.000000        0.00000000        0.00000000        0.00000000
      10         -0.683920        2.000000        0.00000003        0.00000025        0.00000002
      11         -0.681735        2.000000        0.00000000        0.00000000        0.00000000
      12         -0.679408        2.000000        0.00000000        0.00000000        0.00000000
      13         -0.678932        2.000000        0.00073356        0.00012059        0.00000101
      14         -0.678381        2.000000        0.00000000        0.00000000        0.00000000
      15         -0.677963        2.000000        0.00000000        0.00000000        0.00000000
      16         -0.677540        2.000000        0.00000000        0.00000000        0.00000000
      17         -0.677381        2.000000        0.00066387        0.00034188        0.00000339
      18         -0.677246        2.000000        0.00000000        0.00000000        0.00000000
      19         -0.675827        2.000000        0.00000000        0.00000000        0.00000000
      20         -0.675724        2.000000        0.00144132        0.00042945        0.00000164
      21         -0.674932        2.000000        0.00145433        0.00028529        0.00000110
      22         -0.674380        2.000000        0.00000001        0.00000000        0.00000000
      23         -0.673393        2.000000        0.00000002        0.00000000        0.00000000
      24         -0.672924        2.000000        0.02774639        0.00699135        0.00001696
      25         -0.672289        2.000000        0.00000000        0.00000000        0.00000000
      26         -0.672227        2.000000        0.00000000        0.00000001        0.00000000
      27         -0.671275        2.000000        0.07932110        0.01927609        0.00005103
      28         -0.670770        2.000000        0.00000027        0.00000007        0.00000000
      29         -0.670400        2.000000        0.00000013        0.00000003        0.00000000
      30         -0.669922        2.000000        0.00000016        0.00000004        0.00000000
      31         -0.669606        2.000000        0.00053465        0.00007678        0.00000126
      32         -0.668947        2.000000        0.00055103        0.00020025        0.00000364
      33         -0.668931        2.000000        0.00081453        0.00034107        0.00000625
      34         -0.668431        2.000000        0.00000047        0.00000070        0.00000002
      35         -0.668008        2.000000        0.00000031        0.00000131        0.00000009
      36         -0.667083        2.000000        0.00000013        0.00000020        0.00000001
      37         -0.666996        2.000000        0.00436822        0.00100405        0.00000423
      38         -0.666939        2.000000        0.00000041        0.00000015        0.00000000
      39         -0.666646        2.000000        0.00000037        0.00000235        0.00000010
      40         -0.666363        2.000000        0.00000585        0.00000122        0.00000008
      41         -0.666281        2.000000        0.00376099        0.00051549        0.00001353
      42         -0.666129        2.000000        0.00000599        0.00000074        0.00000003
      43         -0.665867        2.000000        0.00000008        0.00000009        0.00000000
      44         -0.664404        2.000000        0.10690695        0.02361142        0.00017686
      45         -0.664061        2.000000        0.00020954        0.00004667        0.00000029
      46         -0.663948        2.000000        0.00000696        0.00000273        0.00000014
      47         -0.663550        2.000000        0.00000917        0.00000253        0.00000002
      48         -0.662943        2.000000        0.11659061        0.01759905        0.00036223
      49         -0.662627        2.000000        0.00000004        0.00000000        0.00000000
      50         -0.661965        2.000000        0.00000031        0.00000026        0.00000000
      51         -0.661528        2.000000        0.00050075        0.00014916        0.00000311
      52         -0.660900        2.000000        0.00056495        0.00038051        0.00001441
      53         -0.660166        2.000000        0.00000011        0.00000008        0.00000000
      54         -0.659683        2.000000        0.17838296        0.04851010        0.00039417
      55         -0.658835        2.000000        0.00003028        0.00001089        0.00000005
      56         -0.658814        2.000000        0.02601755        0.00837794        0.00005424
      57         -0.658691        2.000000        0.01073706        0.00281607        0.00002024
      58         -0.658084        2.000000        0.00090038        0.00030589        0.00000203
      59         -0.658073        2.000000        0.00284348        0.00096169        0.00000618
      60         -0.657975        2.000000        0.00002738        0.00000989        0.00000004
      61         -0.657678        2.000000        0.00000212        0.00000076        0.00000001
      62         -0.657592        2.000000        0.00000294        0.00000101        0.00000000
      63         -0.657226        2.000000        0.01174655        0.00360857        0.00006215
      64         -0.657087        2.000000        0.00000045        0.00000011        0.00000001
      65         -0.656742        2.000000        0.00000004        0.00000051        0.00000006
      66         -0.656449        2.000000        0.00007893        0.00002728        0.00000010
      67         -0.656215        2.000000        0.00015513        0.00005253        0.00000027
      68         -0.655700        2.000000        0.00026187        0.00007568        0.00000063
      69         -0.655174        2.000000        0.00117455        0.00038626        0.00003198
      70         -0.654827        2.000000        0.00000063        0.00000016        0.00000000
      71         -0.654660        2.000000        0.00029115        0.00022593        0.00001571
      72         -0.654406        2.000000        0.00000002        0.00000083        0.00000009
      73         -0.654250        2.000000        0.00000191        0.00000057        0.00000003
      74         -0.653619        2.000000        0.00131969        0.00019597        0.00001134
      75         -0.653105        2.000000        0.00322542        0.00077395        0.00001251
      76         -0.652904        2.000000        0.01937574        0.00418119        0.00007047
      77         -0.652612        2.000000        0.00019672        0.00003958        0.00000076
      78         -0.652411        2.000000        0.00001421        0.00000308        0.00000006
      79         -0.652213        2.000000        0.00748693        0.00141769        0.00003497
      80         -0.652083        2.000000        0.00144968        0.00033378        0.00000455
      81         -0.651807        2.000000        0.00459984        0.00085277        0.00002003
      82         -0.651706        2.000000        0.00015621        0.00013849        0.00001526
      83         -0.651237        2.000000        0.00000245        0.00000926        0.00000009
      84         -0.651053        2.000000        0.00060023        0.00016747        0.00000240
      85         -0.650411        2.000000        0.00111124        0.00042294        0.00000332
      86         -0.650326        2.000000        0.00001192        0.00012380        0.00000756
      87         -0.650219        2.000000        0.00008682        0.00002305        0.00000047
      88         -0.650130        2.000000        0.00018860        0.00007376        0.00000458
      89         -0.649849        2.000000        0.00196343        0.00049658        0.00001282
      90         -0.649510        2.000000        0.00006005        0.00001881        0.00000079
      91         -0.648737        2.000000        0.00661055        0.00162512        0.00003401
      92         -0.648608        2.000000        0.01004465        0.00260004        0.00006306
      93         -0.648509        2.000000        0.00000089        0.00000121        0.00000005
      94         -0.648091        2.000000        0.00061559        0.00023596        0.00001297
      95         -0.647956        2.000000        0.00124567        0.00042329        0.00000881
      96         -0.647875        2.000000        0.00006645        0.00001756        0.00000059
      97         -0.647628        2.000000        0.00000683        0.00000320        0.00000014
      98         -0.647248        2.000000        0.00008900        0.00002437        0.00000031
      99         -0.646997        2.000000        0.00503661        0.00151000        0.00005761
     100         -0.646893        2.000000        0.00386144        0.00098312        0.00003203
     101         -0.646794        2.000000        0.00126171        0.00037511        0.00000366
     102         -0.645843        2.000000        0.00774969        0.00351638        0.00001280
     103         -0.645519        2.000000        0.00009972        0.00006920        0.00000014
     104         -0.645232        2.000000        0.00038513        0.00033891        0.00000221
     105         -0.644964        2.000000        0.00002025        0.00003353        0.00000022
     106         -0.644451        2.000000        0.00051811        0.00120342        0.00000993
     107         -0.644170        2.000000        0.00000424        0.00000312        0.00000016
     108         -0.643891        2.000000        0.00284382        0.00083336        0.00000993
     109         -0.643862        2.000000        0.00000395        0.00001538        0.00000053
     110         -0.643478        2.000000        0.00178967        0.00075519        0.00000383
     111         -0.643325        2.000000        0.01072130        0.00463391        0.00002252
     112         -0.642934        2.000000        0.00455952        0.00121754        0.00002894
     113         -0.642899        2.000000        0.00001157        0.00000358        0.00000005
     114         -0.642460        2.000000        0.00000036        0.00000007        0.00000001
     115         -0.642175        2.000000        0.00079041        0.00021863        0.00001339
     116         -0.642120        2.000000        0.00007770        0.00006537        0.00000016
     117         -0.641851        2.000000        0.00452033        0.00232054        0.00000816
     118         -0.641683        2.000000        0.00012252        0.00002934        0.00000067
     119         -0.641305        2.000000        0.00015776        0.00005923        0.00000282
     120         -0.641072        2.000000        0.00051368        0.00018412        0.00000172
     121         -0.640960        2.000000        0.00027037        0.00010303        0.00000597
     122         -0.640793        2.000000        0.00365763        0.00134009        0.00001144
     123         -0.640578        2.000000        0.00075929        0.00038084        0.00000200
     124         -0.640464        2.000000        0.00323210        0.00124038        0.00001022
     125         -0.640169        2.000000        0.00464985        0.00294558        0.00000940
     126         -0.639736        2.000000        0.00066543        0.00034803        0.00000318
     127         -0.639499        2.000000        0.00509091        0.00293517        0.00001131
     128         -0.639154        2.000000        0.00036521        0.00038779        0.00000120
     129         -0.639060        2.000000        0.00374258        0.00119326        0.00001637
     130         -0.638976        2.000000        0.00221717        0.00094076        0.00000571
     131         -0.638593        2.000000        0.00067444        0.00039435        0.00000190
     132         -0.638261        2.000000        0.00001412        0.00001639        0.00000005
     133         -0.638059        2.000000        0.00000138        0.00001065        0.00000023
     134         -0.637912        2.000000        0.00004700        0.00010901        0.00000057
     135         -0.637762        2.000000        0.00000143        0.00000710        0.00000006
     136         -0.637584        2.000000        0.00007700        0.00025625        0.00000552
     137         -0.636804        2.000000        0.00000175        0.00000215        0.00000001
     138         -0.636640        2.000000        0.00003699        0.00026019        0.00000346
     139         -0.636429        2.000000        0.00047092        0.00032653        0.00000176
     140         -0.635515        2.000000        0.00009661        0.00074430        0.00001672
     141         -0.634989        2.000000        0.00164143        0.00052887        0.00001918
     142         -0.634462        2.000000        0.00000178        0.00001156        0.00000033
     143         -0.634132        2.000000        0.00118706        0.00039681        0.00000768
     144         -0.633763        2.000000        0.01067782        0.00351386        0.00009836
     145         -0.633531        2.000000        0.00000602        0.00000219        0.00000004
     146         -0.632585        2.000000        0.00015948        0.00009329        0.00000048
     147         -0.632333        2.000000        0.00000948        0.00002863        0.00000046
     148         -0.632031        2.000000        0.00107102        0.00031755        0.00001161
     149         -0.631841        2.000000        0.00046999        0.00064793        0.00000070
     150         -0.631318        2.000000        0.00085268        0.00052821        0.00000184
     151         -0.630640        2.000000        0.00262211        0.00185663        0.00000636
     152         -0.630519        2.000000        0.00000081        0.00000428        0.00000011
     153         -0.630490        2.000000        0.00002751        0.00002127        0.00000008
     154         -0.629959        2.000000        0.00022057        0.00008745        0.00000371
     155         -0.629452        2.000000        0.00404465        0.00205385        0.00001512
     156         -0.629210        2.000000        0.00004836        0.00002533        0.00000018
     157         -0.628856        2.000000        0.00002374        0.00002723        0.00000025
     158         -0.628516        2.000000        0.00039670        0.00035073        0.00000083
     159         -0.628511        2.000000        0.00050324        0.00050505        0.00000116
     160         -0.628382        2.000000        0.00000346        0.00001977        0.00000015
     161         -0.628242        2.000000        0.00064037        0.00037906        0.00000238
     162         -0.628026        2.000000        0.00044531        0.00027143        0.00000143
     163         -0.627712        2.000000        0.00077238        0.00067970        0.00000208
     164         -0.627438        2.000000        0.00051896        0.00050512        0.00000182
     165         -0.627281        2.000000        0.00061065        0.00059009        0.00000182
     166         -0.626983        2.000000        0.00503596        0.00457305        0.00001401
     167         -0.626804        2.000000        0.00405621        0.00311327        0.00001149
     168         -0.626588        2.000000        0.00194604        0.00162005        0.00000530
     169         -0.626019        2.000000        0.00027053        0.00013283        0.00000174
     170         -0.625843        2.000000        0.00000090        0.00000408        0.00000002
     171         -0.625019        2.000000        0.00042109        0.00038933        0.00000120
     172         -0.624831        2.000000        0.00098967        0.00122761        0.00000378
     173         -0.624166        2.000000        0.00057481        0.00044170        0.00000165
     174         -0.623906        2.000000        0.00002370        0.00002034        0.00000006
     175         -0.623799        2.000000        0.00000649        0.00000525        0.00000007
     176         -0.623716        2.000000        0.00016351        0.00018192        0.00000058
     177         -0.623382        2.000000        0.00268462        0.00243944        0.00000844
     178         -0.623067        2.000000        0.00000262        0.00000214        0.00000001
     179         -0.622801        2.000000        0.00022857        0.00016373        0.00000070
     180         -0.622617        2.000000        0.00026811        0.00036870        0.00000226
     181         -0.622499        2.000000        0.00000022        0.00000769        0.00000015
     182         -0.621672        2.000000        0.00079819        0.00088517        0.00000307
     183         -0.621151        2.000000        0.00088343        0.00105981        0.00000368
     184         -0.620781        2.000000        0.00175218        0.00217617        0.00000765
     185         -0.620579        2.000000        0.00710582        0.00740870        0.00002617
     186         -0.619930        2.000000        0.00093003        0.00092555        0.00000337
     187         -0.618694        2.000000        0.00000013        0.00000006        0.00000000
     188         -0.618461        2.000000        0.00002193        0.00007063        0.00000189
     189         -0.618211        2.000000        0.00000030        0.00000035        0.00000001
     190         -0.617957        2.000000        0.00003180        0.00001615        0.00000025
     191         -0.617770        2.000000        0.00008947        0.00005744        0.00000060
     192         -0.617636        2.000000        0.00012143        0.00011346        0.00000050
     193         -0.617200        2.000000        0.00009598        0.00009980        0.00000032
     194         -0.616810        2.000000        0.00029878        0.00044310        0.00000166
     195         -0.615618        2.000000        0.00004181        0.00003975        0.00000016
     196         -0.615377        2.000000        0.00007659        0.00008306        0.00000032
     197         -0.615228        2.000000        0.00000445        0.00001104        0.00000004
     198         -0.614941        2.000000        0.00000146        0.00000164        0.00000001
     199         -0.613862        2.000000        0.00018654        0.00026005        0.00000123
     200         -0.613167        2.000000        0.00000314        0.00001913        0.00000013
     201         -0.612937        2.000000        0.00000001        0.00000003        0.00000000
     202         -0.612465        2.000000        0.00000941        0.00001895        0.00000009
     203         -0.611371        2.000000        0.00000008        0.00000029        0.00000000
     204         -0.611273        2.000000        0.00001321        0.00001004        0.00000009
     205         -0.610903        2.000000        0.00000313        0.00000585        0.00000003
     206         -0.609912        2.000000        0.00000100        0.00000059        0.00000002
     207         -0.609442        2.000000        0.00000004        0.00000012        0.00000000
     208         -0.609149        2.000000        0.00000740        0.00000919        0.00000005
     209         -0.608882        2.000000        0.00001889        0.00002465        0.00000011
     210         -0.608562        2.000000        0.00009876        0.00005228        0.00000183
     211         -0.608012        2.000000        0.00021646        0.00022672        0.00000116
     212         -0.607014        2.000000        0.00000156        0.00000089        0.00000000
     213         -0.606300        2.000000        0.00000756        0.00000843        0.00000004
     214         -0.605948        2.000000        0.00000938        0.00000960        0.00000005
     215         -0.605403        2.000000        0.00000987        0.00001023        0.00000005
     216         -0.604664        2.000000        0.00019931        0.00020760        0.00000116
     217         -0.604080        2.000000        0.00000554        0.00001180        0.00000004
     218         -0.603538        2.000000        0.00008561        0.00009183        0.00000060
     219         -0.603145        2.000000        0.00002043        0.00002325        0.00000013
     220         -0.602213        2.000000        0.00002406        0.00002047        0.00000010
     221         -0.601871        2.000000        0.00000201        0.00000141        0.00000002
     222         -0.600521        2.000000        0.00000058        0.00000058        0.00000000
     223         -0.599848        2.000000        0.00000466        0.00000526        0.00000001
     224         -0.598111        2.000000        0.00000712        0.00000755        0.00000004
     225         -0.597286        2.000000        0.00000809        0.00001348        0.00000005
     226         -0.597121        2.000000        0.00001029        0.00001677        0.00000005
     227         -0.595585        2.000000        0.00037406        0.00061969        0.00000479
     228         -0.591103        2.000000        0.00000004        0.00000005        0.00000000
     229         -0.582585        2.000000        0.00000002        0.00000002        0.00000000
     230         -0.576283        2.000000        0.00001218        0.00000962        0.00000032
     231         -0.258156        2.000000        0.00000000        0.00000000        0.00000000
     232         -0.253473        2.000000        0.00000000        0.00000000        0.00000000
     233         -0.246233        2.000000        0.00000000        0.00000000        0.00000000
     234         -0.244651        2.000000        0.00000000        0.00000000        0.00000000
     235         -0.243092        2.000000        0.00000000        0.00000000        0.00000000
     236         -0.242544        2.000000        0.00000000        0.00000002        0.00000000
     237         -0.241048        2.000000        0.00000000        0.00000000        0.00000000
     238         -0.240546        2.000000        0.00000000        0.00000000        0.00000000
     239         -0.237982        2.000000        0.00000000        0.00000000        0.00000000
     240         -0.237798        2.000000        0.00000230        0.00001208        0.00000010
     241         -0.236566        2.000000        0.00000020        0.00000071        0.00000001
     242         -0.235920        2.000000        0.00000010        0.00000032        0.00000000
     243         -0.233145        2.000000        0.00016407        0.00079140        0.00001301
     244         -0.232785        2.000000        0.00000000        0.00000001        0.00000000
     245         -0.232224        2.000000        0.00000004        0.00000012        0.00000000
     246         -0.232174        2.000000        0.00007517        0.00021634        0.00000532
     247         -0.232015        2.000000        0.00009483        0.00029382        0.00000732
     248         -0.230744        2.000000        0.00001533        0.00008586        0.00000119
     249         -0.230697        2.000000        0.00000005        0.00000025        0.00000000
     250         -0.229959        2.000000        0.00012577        0.00035940        0.00000863
     251         -0.229741        2.000000        0.00000004        0.00000012        0.00000000
     252         -0.228898        2.000000        0.00000001        0.00000003        0.00000000
     253         -0.227939        2.000000        0.00000000        0.00000000        0.00000000
     254         -0.227542        2.000000        0.00000000        0.00000000        0.00000000
     255         -0.227010        2.000000        0.00000001        0.00000004        0.00000000
     256         -0.226860        2.000000        0.00528365        0.03067475        0.00044447
     257         -0.226780        2.000000        0.00000024        0.00000141        0.00000002
     258         -0.226656        2.000000        0.00000001        0.00000005        0.00000000
     259         -0.226503        2.000000        0.00006509        0.00035961        0.00000556
     260         -0.226036        2.000000        0.00000000        0.00000000        0.00000000
     261         -0.225667        2.000000        0.00000860        0.00004558        0.00000076
     262         -0.225511        2.000000        0.00000045        0.00000248        0.00000003
     263         -0.224716        2.000000        0.00000000        0.00000000        0.00000000
     264         -0.224218        2.000000        0.00000000        0.00000000        0.00000000
     265         -0.223677        2.000000        0.00021105        0.00127912        0.00001662
     266         -0.223438        2.000000        0.00000063        0.00000382        0.00000005
     267         -0.223292        2.000000        0.00000004        0.00000029        0.00000000
     268         -0.223025        2.000000        0.00000035        0.00000215        0.00000003
     269         -0.222436        2.000000        0.00000036        0.00000244        0.00000003
     270         -0.222159        2.000000        0.00002069        0.00006607        0.00000126
     271         -0.221905        2.000000        0.00000039        0.00000297        0.00000004
     272         -0.221185        2.000000        0.00465599        0.03947788        0.00071733
     273         -0.220659        2.000000        0.00000105        0.00000788        0.00000017
     274         -0.219665        2.000000        0.00007244        0.00042179        0.00001002
     275         -0.219630        2.000000        0.00206655        0.01216407        0.00028826
     276         -0.218916        2.000000        0.00000018        0.00000084        0.00000001
     277         -0.218551        2.000000        0.00004964        0.00021871        0.00000392
     278         -0.218398        2.000000        0.00003947        0.00018308        0.00000326
     279         -0.218139        2.000000        0.00002217        0.00011544        0.00000267
     280         -0.217698        2.000000        0.00000176        0.00000526        0.00000011
     281         -0.217580        2.000000        0.00015816        0.00047462        0.00000990
     282         -0.217435        2.000000        0.00000535        0.00001717        0.00000035
     283         -0.216483        2.000000        0.00000113        0.00000421        0.00000009
     284         -0.216363        2.000000        0.00011051        0.00034302        0.00000708
     285         -0.216254        2.000000        0.00000091        0.00000279        0.00000006
     286         -0.215958        2.000000        0.00007301        0.00022768        0.00000521
     287         -0.215645        2.000000        0.00016734        0.00059544        0.00001229
     288         -0.215217        2.000000        0.00000000        0.00000005        0.00000000
     289         -0.214936        2.000000        0.00000001        0.00000002        0.00000000
     290         -0.214221        2.000000        0.00000009        0.00000038        0.00000001
     291         -0.213816        2.000000        0.00000021        0.00000065        0.00000002
     292         -0.213592        2.000000        0.00027469        0.00098911        0.00002817
     293         -0.213468        2.000000        0.00000004        0.00000112        0.00000004
     294         -0.213241        2.000000        0.00000069        0.00000204        0.00000004
     295         -0.213184        2.000000        0.00014712        0.00044067        0.00000868
     296         -0.212817        2.000000        0.00079227        0.00228413        0.00004958
     297         -0.212583        2.000000        0.00000940        0.00002783        0.00000061
     298         -0.212273        2.000000        0.00005941        0.00084913        0.00002507
     299         -0.211896        2.000000        0.00000195        0.00000723        0.00000016
     300         -0.211391        2.000000        0.00312139        0.00932008        0.00019276
     301         -0.211339        2.000000        0.00091651        0.00272516        0.00005654
     302         -0.211269        2.000000        0.00008637        0.00026693        0.00000538
     303         -0.211046        2.000000        0.00000353        0.00002253        0.00000026
     304         -0.210412        2.000000        0.00143154        0.00413968        0.00008707
     305         -0.210309        2.000000        0.01536823        0.04436148        0.00094434
     306         -0.210188        2.000000        0.00017560        0.00051936        0.00001074
     307         -0.210166        2.000000        0.00036554        0.00109528        0.00002367