# Projected DOS for list 225 of 3 atoms, at iteration step i = 0, E(Fermi) =     0.101540 a.u.
#     MO Eigenvalue [a.u.]      Occupation                 s                 p                 d
       1         -0.708367        2.000000        0.00000000        0.00000000        0.00000000
       2         -0.696979        2.000000        0.00000000        0.00000000        0.00000000
       3         -0.695301        2.000000        0.00000000        0.00000000        0.00000000
       4         -0.694902        2.000000        0.00010788        0.00006236        0.00000102
       5         -0.690081        2.000000        0.00012521        0.00004482        0.00000196
       6         -0.686805        2.000000        0.00000000        0.00000000        0.00000000
       7         -0.686571        2.000000        0.00000000        0.00000000        0.00000000
       8         -0.685003        2.000000        0.00000000        0.00000000        0.00000000
       9         -0.684036        2.000000        0.00000000        0.00000000        0.00000000
      10         -0.683920        2.000000        0.00007581        0.00033786        0.00000077
      11         -0.681735        2.000000        0.00000000        0.00000000        0.00000000
      12         -0.679408        2.000000        0.00000000        0.00000000        0.00000000
      13         -0.678932        2.000000        0.00020574        0.00007343        0.00000121
      14         -0.678381        2.000000        0.00000000        0.00000000        0.00000000
      15         -0.677963        2.000000        0.00000000        0.00000000        0.00000000
      16         -0.677540        2.000000        0.00000000        0.00000000        0.00000000
      17         -0.677381        2.000000        0.00002699        0.00001026        0.00000033
      18         -0.677246        2.000000        0.00000000        0.00000000        0.00000000
      19         -0.675827        2.000000        0.00000000        0.00000000        0.00000000
      20         -0.675724        2.000000        0.00685026        0.00206226        0.00005376
      21         -0.674932        2.000000        0.00106256        0.00035878        0.00000816
      22         -0.674380        2.000000        0.00000000        0.00000000        0.00000000
      23         -0.673393        2.000000        0.00000000        0.00000000        0.00000000
      24         -0.672924        2.000000        0.00060218        0.00051169        0.00000617
      25         -0.672289        2.000000        0.00000000        0.00000000        0.00000000
      26         -0.672227        2.000000        0.00000000        0.00000000        0.00000000
      27         -0.671275        2.000000        0.00001733        0.00006307        0.00000035
      28         -0.670770        2.000000        0.00000000        0.00000000        0.00000000
      29         -0.670400        2.000000        0.00000000        0.00000000        0.00000000
      30         -0.669922        2.000000        0.00000000        0.00000000        0.00000000
      31         -0.669606        2.000000        0.00000271        0.00000864        0.00000002
      32         -0.668947        2.000000        0.00000891        0.00001201        0.00000006
      33         -0.668931        2.000000        0.00001859        0.00002023        0.00000011
      34         -0.668431        2.000000        0.00000032        0.00000008        0.00000000
      35         -0.668008        2.000000        0.00000130        0.00000039        0.00000001
      36         -0.667083        2.000000        0.00000019        0.00000009        0.00000000
      37         -0.666996        2.000000        0.00009275        0.00005119        0.00000012
      38         -0.666939        2.000000        0.00000004        0.00000003        0.00000000
      39         -0.666646        2.000000        0.00000737        0.00000239        0.00000003
      40         -0.666363        2.000000        0.00000443        0.00000128        0.00000002
      41         -0.666281        2.000000        0.00000578        0.00000355        0.00000008
      42         -0.666129        2.000000        0.00000083        0.00000026        0.00000000
      43         -0.665867        2.000000        0.00000052        0.00000014        0.00000000
      44         -0.664404        2.000000        0.03889614        0.01016367        0.00011098
      45         -0.664061        2.000000        0.00012212        0.00003114        0.00000032
      46         -0.663948        2.000000        0.00059340        0.00014730        0.00000137
      47         -0.663550        2.000000        0.00002446        0.00000609        0.00000006
      48         -0.662943        2.000000        0.00670770        0.00172446        0.00000825
      49         -0.662627        2.000000        0.00000000        0.00000000        0.00000000
      50         -0.661965        2.000000        0.00000064        0.00000035        0.00000000
      51         -0.661528        2.000000        0.00014316        0.00030227        0.00000107
      52         -0.660900        2.000000        0.00302175        0.00084568        0.00000810
      53         -0.660166        2.000000        0.00000039        0.00000010        0.00000000
      54         -0.659683        2.000000        0.00098018        0.00025785        0.00001028
      55         -0.658835        2.000000        0.00000018        0.00000009        0.00000000
      56         -0.658814        2.000000        0.00084882        0.00019698        0.00000138
      57         -0.658691        2.000000        0.00324741        0.00093993        0.00000244
      58         -0.658084        2.000000        0.00001593        0.00001890        0.00000012
      59         -0.658073        2.000000        0.00003545        0.00005072        0.00000033
      60         -0.657975        2.000000        0.00000070        0.00000018        0.00000000
      61         -0.657678        2.000000        0.00001056        0.00000266        0.00000001
      62         -0.657592        2.000000        0.00000011        0.00000009        0.00000000
      63         -0.657226        2.000000        0.04862698        0.01257738        0.00004676
      64         -0.657087        2.000000        0.00000549        0.00000102        0.00000001
      65         -0.656742        2.000000        0.00004243        0.00000771        0.00000005
      66         -0.656449        2.000000        0.00000227        0.00000315        0.00000000
      67         -0.656215        2.000000        0.00002849        0.00000662        0.00000004
      68         -0.655700        2.000000        0.00019719        0.00004167        0.00000020
      69         -0.655174        2.000000        0.04661612        0.01301633        0.00004568
      70         -0.654827        2.000000        0.00003754        0.00000977        0.00000003
      71         -0.654660        2.000000        0.01483495        0.00358197        0.00001558
      72         -0.654406        2.000000        0.00002245        0.00000508        0.00000005
      73         -0.654250        2.000000        0.00001279        0.00000299        0.00000002
      74         -0.653619        2.000000        0.00021767        0.00010489        0.00000619
      75         -0.653105        2.000000        0.00193862        0.00044246        0.00000328
      76         -0.652904        2.000000        0.00620441        0.00144046        0.00001308
      77         -0.652612        2.000000        0.00001368        0.00000315        0.00000005
      78         -0.652411        2.000000        0.00000497        0.00000124        0.00000001
      79         -0.652213        2.000000        0.00002862        0.00001065        0.00000015
      80         -0.652083        2.000000        0.00038474        0.00009061        0.00000070
      81         -0.651807        2.000000        0.00009110        0.00002416        0.00000024
      82         -0.651706        2.000000        0.00147707        0.00036776        0.00000198
      83         -0.651237        2.000000        0.00000685        0.00000695        0.00000001
      84         -0.651053        2.000000        0.00004546        0.00001958        0.00000005
      85         -0.650411        2.000000        0.04921556        0.01158207        0.00008143
      86         -0.650326        2.000000        0.04116624        0.00943735        0.00007268
      87         -0.650219        2.000000        0.00026568        0.00006860        0.00000040
      88         -0.650130        2.000000        0.00338762        0.00073720        0.00000697
      89         -0.649849        2.000000        0.00092913        0.00025349        0.00000125
      90         -0.649510        2.000000        0.00003230        0.00000920        0.00000004
      91         -0.648737        2.000000        0.00341233        0.00077474        0.00000695
      92         -0.648608        2.000000        0.04211185        0.00941008        0.00009944
      93         -0.648509        2.000000        0.00091164        0.00020168        0.00000231
      94         -0.648091        2.000000        0.01873058        0.00406286        0.00005132
      95         -0.647956        2.000000        0.27449671        0.06168931        0.00068827
      96         -0.647875        2.000000        0.00006891        0.00001452        0.00000021
      97         -0.647628        2.000000        0.00003067        0.00000651        0.00000009
      98         -0.647248        2.000000        0.00004013        0.00000934        0.00000009
      99         -0.646997        2.000000        0.00076910        0.00016446        0.00000207
     100         -0.646893        2.000000        0.00003541        0.00001434        0.00000011
     101         -0.646794        2.000000        0.00065299        0.00014653        0.00000154
     102         -0.645843        2.000000        0.00243401        0.00048910        0.00000634
     103         -0.645519        2.000000        0.00000652        0.00000344        0.00000003
     104         -0.645232        2.000000        0.00036686        0.00010636        0.00000095
     105         -0.644964        2.000000        0.00000586        0.00000122        0.00000002
     106         -0.644451        2.000000        0.00028426        0.00007079        0.00000105
     107         -0.644170        2.000000        0.00000202        0.00000293        0.00000004
     108         -0.643891        2.000000        0.00016151        0.00028951        0.00000230
     109         -0.643862        2.000000        0.00003181        0.00006137        0.00000081
     110         -0.643478        2.000000        0.00028276        0.00006843        0.00000057
     111         -0.643325        2.000000        0.00248084        0.00059159        0.00000517
     112         -0.642934        2.000000        0.00762785        0.00231408        0.00001816
     113         -0.642899        2.000000        0.00001199        0.00000342        0.00000003
     114         -0.642460        2.000000        0.00000067        0.00000028        0.00000000
     115         -0.642175        2.000000        0.00113039        0.00027742        0.00000413
     116         -0.642120        2.000000        0.00029927        0.00007176        0.00000062
     117         -0.641851        2.000000        0.00368572        0.00087701        0.00001008
     118         -0.641683        2.000000        0.00053542        0.00013597        0.00000110
     119         -0.641305        2.000000        0.00478209        0.00116349        0.00001016
     120         -0.641072        2.000000        0.00512118        0.00116733        0.00001412
     121         -0.640960        2.000000        0.00313126        0.00077256        0.00000566
     122         -0.640793        2.000000        0.04560338        0.00992155        0.00012971
     123         -0.640578        2.000000        0.00389564        0.00087101        0.00001247
     124         -0.640464        2.000000        0.00191436        0.00043644        0.00001300
     125         -0.640169        2.000000        0.00152868        0.00042873        0.00000725
     126         -0.639736        2.000000        0.03080087        0.00762128        0.00006716
     127         -0.639499        2.000000        0.00424596        0.00099776        0.00001096
     128         -0.639154        2.000000        0.00012656        0.00003303        0.00000050
     129         -0.639060        2.000000        0.00940463        0.00217175        0.00002047
     130         -0.638976        2.000000        0.00380270        0.00095038        0.00000810
     131         -0.638593        2.000000        0.00426569        0.00111296        0.00000957
     132         -0.638261        2.000000        0.00000347        0.00000097        0.00000001
     133         -0.638059        2.000000        0.00041325        0.00011672        0.00000090
     134         -0.637912        2.000000        0.00033482        0.00009716        0.00000072
     135         -0.637762        2.000000        0.00002562        0.00000769        0.00000006
     136         -0.637584        2.000000        0.00079796        0.00025427        0.00000199
     137         -0.636804        2.000000        0.00000105        0.00000044        0.00000000
     138         -0.636640        2.000000        0.00042261        0.00012346        0.00000157
     139         -0.636429        2.000000        0.00030384        0.00007796        0.00000060
     140         -0.635515        2.000000        0.00003065        0.00001552        0.00000037
     141         -0.634989        2.000000        0.00001236        0.00002200        0.00000006
     142         -0.634462        2.000000        0.00001522        0.00000994        0.00000002
     143         -0.634132        2.000000        0.00000654        0.00001089        0.00000002
     144         -0.633763        2.000000        0.00007675        0.00009999        0.00000032
     145         -0.633531        2.000000        0.00000013        0.00000012        0.00000000
     146         -0.632585        2.000000        0.00000370        0.00000204        0.00000011
     147         -0.632333        2.000000        0.00059551        0.00014948        0.00000229
     148         -0.632031        2.000000        0.00019105        0.00006341        0.00000085
     149         -0.631841        2.000000        0.00078441        0.00021844        0.00001740
     150         -0.631318        2.000000        0.00018766        0.00005067        0.00000109
     151         -0.630640        2.000000        0.00020714        0.00009336        0.00000052
     152         -0.630519        2.000000        0.00002651        0.00000594        0.00000015
     153         -0.630490        2.000000        0.00001608        0.00000418        0.00000007
     154         -0.629959        2.000000        0.00013448        0.00018477        0.00000023
     155         -0.629452        2.000000        0.00049166        0.00029762        0.00000119
     156         -0.629210        2.000000        0.00001439        0.00000759        0.00000004
     157         -0.628856        2.000000        0.00002170        0.00000922        0.00000024
     158         -0.628516        2.000000        0.00005581        0.00001359        0.00000030
     159         -0.628511        2.000000        0.00000269        0.00000477        0.00000019
     160         -0.628382        2.000000        0.00000230        0.00000329        0.00000035
     161         -0.628242        2.000000        0.00031283        0.00015192        0.00000104
     162         -0.628026        2.000000        0.00006620        0.00005427        0.00000010
     163         -0.627712        2.000000        0.00000444        0.00000266        0.00000004
     164         -0.627438        2.000000        0.00000685        0.00001892        0.00000024
     165         -0.627281        2.000000        0.00000319        0.00000401        0.00000005
     166         -0.626983        2.000000        0.00002188        0.00001911        0.00000022
     167         -0.626804        2.000000        0.00003706        0.00009294        0.00000009
     168         -0.626588        2.000000        0.00000387        0.00000211        0.00000007
     169         -0.626019        2.000000        0.00002366        0.00001050        0.00000013
     170         -0.625843        2.000000        0.00000177        0.00000077        0.00000002
     171         -0.625019        2.000000        0.00002672        0.00001778        0.00000018
     172         -0.624831        2.000000        0.00009042        0.00009490        0.00000034
     173         -0.624166        2.000000        0.00032277        0.00019777        0.00000163
     174         -0.623906        2.000000        0.00000433        0.00000296        0.00000002
     175         -0.623799        2.000000        0.00001665        0.00000429        0.00000011
     176         -0.623716        2.000000        0.00000026        0.00000034        0.00000001
     177         -0.623382        2.000000        0.00000381        0.00000530        0.00000006
     178         -0.623067        2.000000        0.00000002        0.00000002        0.00000000
     179         -0.622801        2.000000        0.00002587        0.00002364        0.00000018
     180         -0.622617        2.000000        0.00036966        0.00030314        0.00000277
     181         -0.622499        2.000000        0.00005178        0.00004254        0.00000039
     182         -0.621672        2.000000        0.00001851        0.00001156        0.00000011
     183         -0.621151        2.000000        0.00000990        0.00000435        0.00000008
     184         -0.620781        2.000000        0.00001221        0.00000662        0.00000014
     185         -0.620579        2.000000        0.00009700        0.00008328        0.00000041
     186         -0.619930        2.000000        0.00002553        0.00003352        0.00000008
     187         -0.618694        2.000000        0.00000033        0.00000084        0.00000000
     188         -0.618461        2.000000        0.00046664        0.00126052        0.00000069
     189         -0.618211        2.000000        0.00000371        0.00000996        0.00000001
     190         -0.617957        2.000000        0.00006363        0.00016116        0.00000010
     191         -0.617770        2.000000        0.00016309        0.00040737        0.00000026
     192         -0.617636        2.000000        0.00003588        0.00006259        0.00000008
     193         -0.617200        2.000000        0.00004268        0.00007343        0.00000013
     194         -0.616810        2.000000        0.00014055        0.00032808        0.00000024
     195         -0.615618        2.000000        0.00001008        0.00002710        0.00000003
     196         -0.615377        2.000000        0.00000003        0.00000006        0.00000000
     197         -0.615228        2.000000        0.00001033        0.00002067        0.00000005
     198         -0.614941        2.000000        0.00000000        0.00000000        0.00000000
     199         -0.613862        2.000000        0.00000980        0.00000501        0.00000018
     200         -0.613167        2.000000        0.00000357        0.00001711        0.00000012
     201         -0.612937        2.000000        0.00000000        0.00000000        0.00000000
     202         -0.612465        2.000000        0.00000026        0.00000114        0.00000001
     203         -0.611371        2.000000        0.00000142        0.00000426        0.00000000
     204         -0.611273        2.000000        0.00000777        0.00002079        0.00000004
     205         -0.610903        2.000000        0.00000012        0.00000019        0.00000000
     206         -0.609912        2.000000        0.00000004        0.00000014        0.00000000
     207         -0.609442        2.000000        0.00000001        0.00000002        0.00000000
     208         -0.609149        2.000000        0.00000042        0.00000127        0.00000000
     209         -0.608882        2.000000        0.00000078        0.00000330        0.00000001
     210         -0.608562        2.000000        0.00016075        0.00042736        0.00000031
     211         -0.608012        2.000000        0.00000001        0.00000013        0.00000000
     212         -0.607014        2.000000        0.00000000        0.00000000        0.00000000
     213         -0.606300        2.000000        0.00000002        0.00000005        0.00000000
     214         -0.605948        2.000000        0.00000000        0.00000001        0.00000000
     215         -0.605403        2.000000        0.00000000        0.00000000        0.00000000
     216         -0.604664        2.000000        0.00000004        0.00000009        0.00000000
     217         -0.604080        2.000000        0.00000005        0.00000006        0.00000000
     218         -0.603538        2.000000        0.00000007        0.00000019        0.00000001
     219         -0.603145        2.000000        0.00000002        0.00000002        0.00000000
     220         -0.602213        2.000000        0.00000063        0.00000031        0.00000002
     221         -0.601871        2.000000        0.00000004        0.00000006        0.00000000
     222         -0.600521        2.000000        0.00000002        0.00000001        0.00000000
     223         -0.599848        2.000000        0.00000060        0.00000054        0.00000003
     224         -0.598111        2.000000        0.00000004        0.00000005        0.00000000
     225         -0.597286        2.000000        0.00000010        0.00000042        0.00000000
     226         -0.597121        2.000000        0.00000006        0.00000054        0.00000000
     227         -0.595585        2.000000        0.00000395        0.00001170        0.00000007
     228         -0.591103        2.000000        0.00000000        0.00000000        0.00000000
     229         -0.582585        2.000000        0.00000000        0.00000001        0.00000000
     230         -0.576283        2.000000        0.00000000        0.00000000        0.00000000
     231         -0.258156        2.000000        0.00000000        0.00000000        0.00000000
     232         -0.253473        2.000000        0.00000000        0.00000000        0.00000000
     233         -0.246233        2.000000        0.00000000        0.00000001        0.00000000
     234         -0.244651        2.000000        0.00000000        0.00000000        0.00000000
     235         -0.243092        2.000000        0.00000000        0.00000000        0.00000000
     236         -0.242544        2.000000        0.00000860        0.00006748        0.00000150
     237         -0.241048        2.000000        0.00000002        0.00000006        0.00000000
     238         -0.240546        2.000000        0.00000000        0.00000000        0.00000000
     239         -0.237982        2.000000        0.00000022        0.00000103        0.00000001
     240         -0.237798        2.000000        0.00140565        0.00718758        0.00006192
     241         -0.236566        2.000000        0.00002136        0.00017358        0.00000225
     242         -0.235920        2.000000        0.00000952        0.00005576        0.00000114
     243         -0.233145        2.000000        0.00522276        0.02783250        0.00023256
     244         -0.232785        2.000000        0.00000004        0.00000033        0.00000000
     245         -0.232224        2.000000        0.00000012        0.00000089        0.00000001
     246         -0.232174        2.000000        0.00022084        0.00092815        0.00001011
     247         -0.232015        2.000000        0.00051005        0.00278460        0.00002306
     248         -0.230744        2.000000        0.00006925        0.00027150        0.00000499
     249         -0.230697        2.000000        0.00000025        0.00000096        0.00000001
     250         -0.229959        2.000000        0.00003738        0.00016358        0.00000193
     251         -0.229741        2.000000        0.00000004        0.00000011        0.00000000
     252         -0.228898        2.000000        0.00000020        0.00000056        0.00000001
     253         -0.227939        2.000000        0.00000000        0.00000001        0.00000000
     254         -0.227542        2.000000        0.00000000        0.00000000        0.00000000
     255         -0.227010        2.000000        0.00000001        0.00000002        0.00000000
     256         -0.226860        2.000000        0.00064292        0.00280864        0.00002767
     257         -0.226780        2.000000        0.00000001        0.00000004        0.00000000
     258         -0.226656        2.000000        0.00000000        0.00000000        0.00000000
     259         -0.226503        2.000000        0.00003545        0.00016062        0.00000140
     260         -0.226036        2.000000        0.00000001        0.00000002        0.00000000
     261         -0.225667        2.000000        0.00125848        0.00639042        0.00005646
     262         -0.225511        2.000000        0.00000436        0.00002286        0.00000020
     263         -0.224716        2.000000        0.00000060        0.00000190        0.00000003
     264         -0.224218        2.000000        0.00000014        0.00000047        0.00000001
     265         -0.223677        2.000000        0.00131237        0.00741775        0.00007298
     266         -0.223438        2.000000        0.00000141        0.00001041        0.00000011
     267         -0.223292        2.000000        0.00000003        0.00000020        0.00000000
     268         -0.223025        2.000000        0.00000062        0.00000304        0.00000006
     269         -0.222436        2.000000        0.00000152        0.00000429        0.00000010
     270         -0.222159        2.000000        0.00009356        0.00060045        0.00000813
     271         -0.221905        2.000000        0.00000090        0.00000250        0.00000006
     272         -0.221185        2.000000        0.00056706        0.00337197        0.00004294
     273         -0.220659        2.000000        0.00000105        0.00000306        0.00000007
     274         -0.219665        2.000000        0.00001846        0.00015465        0.00000301
     275         -0.219630        2.000000        0.00081985        0.00590484        0.00011866
     276         -0.218916        2.000000        0.00000850        0.00002320        0.00000054
     277         -0.218551        2.000000        0.00084854        0.00242964        0.00005653
     278         -0.218398        2.000000        0.00049993        0.00159276        0.00003707
     279         -0.218139        2.000000        0.00039827        0.00113596        0.00002247
     280         -0.217698        2.000000        0.00000057        0.00000630        0.00000010
     281         -0.217580        2.000000        0.00049687        0.00156918        0.00003014
     282         -0.217435        2.000000        0.00009264        0.00030317        0.00000608
     283         -0.216483        2.000000        0.00009764        0.00029131        0.00000571
     284         -0.216363        2.000000        0.00011266        0.00031829        0.00000943
     285         -0.216254        2.000000        0.00000478        0.00001300        0.00000028
     286         -0.215958        2.000000        0.01159020        0.03471640        0.00065103
     287         -0.215645        2.000000        0.01330784        0.04054829        0.00075711
     288         -0.215217        2.000000        0.00000234        0.00000683        0.00000012
     289         -0.214936        2.000000        0.00000003        0.00000008        0.00000000
     290         -0.214221        2.000000        0.00000399        0.00001231        0.00000021
     291         -0.213816        2.000000        0.00000089        0.00000312        0.00000004
     292         -0.213592        2.000000        0.00019682        0.00069713        0.00001368
     293         -0.213468        2.000000        0.00003376        0.00010724        0.00000169
     294         -0.213241        2.000000        0.00000361        0.00001013        0.00000019
     295         -0.213184        2.000000        0.00127982        0.00397113        0.00005966
     296         -0.212817        2.000000        0.00052767        0.00152327        0.00002675
     297         -0.212583        2.000000        0.00001568        0.00004394        0.00000087
     298         -0.212273        2.000000        0.01884015        0.05226808        0.00104301
     299         -0.211896        2.000000        0.00004587        0.00012811        0.00000245
     300         -0.211391        2.000000        0.01174231        0.03287822        0.00062623
     301         -0.211339        2.000000        0.00324535        0.00907275        0.00017401
     302         -0.211269        2.000000        0.00060507        0.00168513        0.00003274
     303         -0.211046        2.000000        0.00055640        0.00149809        0.00003498
     304         -0.210412        2.000000        0.00092792        0.00271821        0.00004588
     305         -0.210309        2.000000        0.01799334        0.05015019        0.00097480
     306         -0.210188        2.000000        0.00149833        0.00399862        0.00009611
     307         -0.210166        2.000000        0.00574651        0.01557968        0.00033931