# Projected DOS for list 100 of 3 atoms, at iteration step i = 0, E(Fermi) =     0.101540 a.u.
#     MO Eigenvalue [a.u.]      Occupation                 s                 p                 d
       1         -0.708367        2.000000        0.00000000        0.00000000        0.00000000
       2         -0.696979        2.000000        0.00000019        0.00000011        0.00000000
       3         -0.695301        2.000000        0.00000000        0.00000000        0.00000000
       4         -0.694902        2.000000        0.00000000        0.00000000        0.00000000
       5         -0.690081        2.000000        0.00000000        0.00000000        0.00000000
       6         -0.686805        2.000000        0.00000920        0.00000342        0.00000005
       7         -0.686571        2.000000        0.00000084        0.00000031        0.00000000
       8         -0.685003        2.000000        0.00000030        0.00000010        0.00000000
       9         -0.684036        2.000000        0.00001391        0.00000457        0.00000002
      10         -0.683920        2.000000        0.00000000        0.00000000        0.00000000
      11         -0.681735        2.000000        0.00001060        0.00000320        0.00000001
      12         -0.679408        2.000000        0.00000325        0.00000094        0.00000001
      13         -0.678932        2.000000        0.00000006        0.00000001        0.00000000
      14         -0.678381        2.000000        0.00016652        0.00004691        0.00000018
      15         -0.677963        2.000000        0.00000083        0.00000026        0.00000000
      16         -0.677540        2.000000        0.00011654        0.00003284        0.00000009
      17         -0.677381        2.000000        0.00000001        0.00000000        0.00000000
      18         -0.677246        2.000000        0.00019317        0.00005348        0.00000015
      19         -0.675827        2.000000        0.00000068        0.00000021        0.00000000
      20         -0.675724        2.000000        0.00000000        0.00000001        0.00000000
      21         -0.674932        2.000000        0.00000006        0.00000001        0.00000000
      22         -0.674380        2.000000        0.00013860        0.00003560        0.00000012
      23         -0.673393        2.000000        0.00008419        0.00002090        0.00000014
      24         -0.672924        2.000000        0.00000916        0.00000130        0.00000002
      25         -0.672289        2.000000        0.00000291        0.00000077        0.00000001
      26         -0.672227        2.000000        0.00006352        0.00001577        0.00000016
      27         -0.671275        2.000000        0.00002699        0.00000432        0.00000004
      28         -0.670770        2.000000        0.00002007        0.00000635        0.00000015
      29         -0.670400        2.000000        0.00025897        0.00006442        0.00000037
      30         -0.669922        2.000000        0.00065584        0.00016241        0.00000107
      31         -0.669606        2.000000        0.00038155        0.00007380        0.00000060
      32         -0.668947        2.000000        0.01220391        0.00278466        0.00001598
      33         -0.668931        2.000000        0.00484613        0.00113509        0.00000616
      34         -0.668431        2.000000        0.06365246        0.01453987        0.00009004
      35         -0.668008        2.000000        0.51108287        0.11649011        0.00072726
      36         -0.667083        2.000000        0.03009352        0.00680041        0.00004395
      37         -0.666996        2.000000        0.00002970        0.00000834        0.00000004
      38         -0.666939        2.000000        0.00039320        0.00008765        0.00000059
      39         -0.666646        2.000000        0.00366715        0.00088755        0.00000515
      40         -0.666363        2.000000        0.00002366        0.00001685        0.00000154
      41         -0.666281        2.000000        0.00000037        0.00000006        0.00000000
      42         -0.666129        2.000000        0.01606195        0.00360606        0.00002931
      43         -0.665867        2.000000        0.00096406        0.00021775        0.00000352
      44         -0.664404        2.000000        0.00015769        0.00005742        0.00000023
      45         -0.664061        2.000000        0.00054320        0.00012490        0.00000215
      46         -0.663948        2.000000        0.00020063        0.00006211        0.00000033
      47         -0.663550        2.000000        0.00029795        0.00006768        0.00000118
      48         -0.662943        2.000000        0.00001486        0.00000526        0.00000002
      49         -0.662627        2.000000        0.00079225        0.00017834        0.00000248
      50         -0.661965        2.000000        0.01188806        0.00267116        0.00003608
      51         -0.661528        2.000000        0.00008989        0.00005063        0.00000013
      52         -0.660900        2.000000        0.00216753        0.00116519        0.00000324
      53         -0.660166        2.000000        0.00016328        0.00003729        0.00000044
      54         -0.659683        2.000000        0.00000649        0.00000567        0.00000002
      55         -0.658835        2.000000        0.00027722        0.00006155        0.00000076
      56         -0.658814        2.000000        0.00000051        0.00000019        0.00000000
      57         -0.658691        2.000000        0.00000312        0.00000282        0.00000001
      58         -0.658084        2.000000        0.00033936        0.00008102        0.00000185
      59         -0.658073        2.000000        0.00017582        0.00004808        0.00000052
      60         -0.657975        2.000000        0.00013728        0.00002241        0.00000094
      61         -0.657678        2.000000        0.00404018        0.00093688        0.00001459
      62         -0.657592        2.000000        0.00045306        0.00012795        0.00000468
      63         -0.657226        2.000000        0.00000231        0.00000425        0.00000001
      64         -0.657087        2.000000        0.00167049        0.00038983        0.00000534
      65         -0.656742        2.000000        0.00138087        0.00041596        0.00000763
      66         -0.656449        2.000000        0.00200599        0.00063035        0.00002103
      67         -0.656215        2.000000        0.00209008        0.00050915        0.00000617
      68         -0.655700        2.000000        0.00208990        0.00048599        0.00000856
      69         -0.655174        2.000000        0.00000346        0.00001124        0.00000004
      70         -0.654827        2.000000        0.00029552        0.00005812        0.00000127
      71         -0.654660        2.000000        0.00008973        0.00010982        0.00000016
      72         -0.654406        2.000000        0.00124160        0.00025542        0.00000566
      73         -0.654250        2.000000        0.00134134        0.00028442        0.00000525
      74         -0.653619        2.000000        0.00002957        0.00004011        0.00000005
      75         -0.653105        2.000000        0.00018247        0.00049696        0.00000193
      76         -0.652904        2.000000        0.00075403        0.00050991        0.00000182
      77         -0.652612        2.000000        0.00002324        0.00001593        0.00000015
      78         -0.652411        2.000000        0.00000794        0.00000619        0.00000055
      79         -0.652213        2.000000        0.00021747        0.00016240        0.00000021
      80         -0.652083        2.000000        0.00198262        0.00155370        0.00000180
      81         -0.651807        2.000000        0.00010890        0.00060104        0.00000236
      82         -0.651706        2.000000        0.00004089        0.00013657        0.00000039
      83         -0.651237        2.000000        0.00030550        0.00008529        0.00000550
      84         -0.651053        2.000000        0.00153910        0.00074666        0.00000525
      85         -0.650411        2.000000        0.00002678        0.00001126        0.00000024
      86         -0.650326        2.000000        0.00004015        0.00001801        0.00000053
      87         -0.650219        2.000000        0.00014814        0.00006172        0.00000287
      88         -0.650130        2.000000        0.00034406        0.00016815        0.00000068
      89         -0.649849        2.000000        0.00035811        0.00015209        0.00000084
      90         -0.649510        2.000000        0.00083393        0.00018804        0.00000543
      91         -0.648737        2.000000        0.00000873        0.00003886        0.00000086
      92         -0.648608        2.000000        0.00004308        0.00006425        0.00000010
      93         -0.648509        2.000000        0.00017024        0.00005132        0.00000259
      94         -0.648091        2.000000        0.00000667        0.00002687        0.00000016
      95         -0.647956        2.000000        0.00000229        0.00000485        0.00000000
      96         -0.647875        2.000000        0.00004459        0.00001478        0.00000039
      97         -0.647628        2.000000        0.00014280        0.00003082        0.00000079
      98         -0.647248        2.000000        0.00000989        0.00000373        0.00000013
      99         -0.646997        2.000000        0.00005391        0.00005409        0.00000024
     100         -0.646893        2.000000        0.00003173        0.00003559        0.00000013
     101         -0.646794        2.000000        0.00000791        0.00003380        0.00000210
     102         -0.645843        2.000000        0.00015366        0.00023101        0.00000160
     103         -0.645519        2.000000        0.00076526        0.00031651        0.00000766
     104         -0.645232        2.000000        0.00011596        0.00037383        0.00000285
     105         -0.644964        2.000000        0.00012089        0.00013725        0.00001107
     106         -0.644451        2.000000        0.00008758        0.00004853        0.00000197
     107         -0.644170        2.000000        0.00004029        0.00035649        0.00004212
     108         -0.643891        2.000000        0.00263234        0.00083973        0.00003340
     109         -0.643862        2.000000        0.00601184        0.00167155        0.00006026
     110         -0.643478        2.000000        0.00000427        0.00001853        0.00000235
     111         -0.643325        2.000000        0.00069475        0.00038912        0.00002278
     112         -0.642934        2.000000        0.00006163        0.00006137        0.00000224
     113         -0.642899        2.000000        0.00010729        0.00002701        0.00000067
     114         -0.642460        2.000000        0.00001351        0.00000395        0.00000019
     115         -0.642175        2.000000        0.00001690        0.00008668        0.00000078
     116         -0.642120        2.000000        0.00005148        0.00001343        0.00000058
     117         -0.641851        2.000000        0.00006538        0.00008376        0.00000762
     118         -0.641683        2.000000        0.00009610        0.00006224        0.00000115
     119         -0.641305        2.000000        0.00009536        0.00010983        0.00000492
     120         -0.641072        2.000000        0.00006834        0.00010337        0.00000036
     121         -0.640960        2.000000        0.00002128        0.00009540        0.00000183
     122         -0.640793        2.000000        0.00000409        0.00005278        0.00000261
     123         -0.640578        2.000000        0.00002167        0.00004933        0.00000281
     124         -0.640464        2.000000        0.00008805        0.00021885        0.00000079
     125         -0.640169        2.000000        0.00000896        0.00011736        0.00000479
     126         -0.639736        2.000000        0.00000888        0.00003036        0.00000125
     127         -0.639499        2.000000        0.00000806        0.00009642        0.00000054
     128         -0.639154        2.000000        0.00016308        0.00035664        0.00000150
     129         -0.639060        2.000000        0.00001294        0.00010587        0.00000061
     130         -0.638976        2.000000        0.00000709        0.00003828        0.00000017
     131         -0.638593        2.000000        0.00002109        0.00007442        0.00000298
     132         -0.638261        2.000000        0.00001888        0.00000891        0.00000053
     133         -0.638059        2.000000        0.00098528        0.00033228        0.00001075
     134         -0.637912        2.000000        0.00145413        0.00052213        0.00001715
     135         -0.637762        2.000000        0.00000193        0.00000810        0.00000047
     136         -0.637584        2.000000        0.00011365        0.00004469        0.00000097
     137         -0.636804        2.000000        0.00002394        0.00000743        0.00000024
     138         -0.636640        2.000000        0.00016059        0.00005016        0.00000127
     139         -0.636429        2.000000        0.00032736        0.00023391        0.00000173
     140         -0.635515        2.000000        0.00010402        0.00006770        0.00000103
     141         -0.634989        2.000000        0.00019937        0.00013916        0.00000241
     142         -0.634462        2.000000        0.00003949        0.00020452        0.00000195
     143         -0.634132        2.000000        0.00192825        0.00069108        0.00001672
     144         -0.633763        2.000000        0.00012750        0.00012859        0.00000031
     145         -0.633531        2.000000        0.00000988        0.00000280        0.00000007
     146         -0.632585        2.000000        0.00055103        0.00018240        0.00000586
     147         -0.632333        2.000000        0.00008531        0.00003093        0.00000067
     148         -0.632031        2.000000        0.00003184        0.00001378        0.00000052
     149         -0.631841        2.000000        0.00004179        0.00001815        0.00000083
     150         -0.631318        2.000000        0.00257336        0.00085467        0.00003266
     151         -0.630640        2.000000        0.00027708        0.00013380        0.00000565
     152         -0.630519        2.000000        0.00135359        0.00052829        0.00000963
     153         -0.630490        2.000000        0.00059824        0.00020869        0.00000499
     154         -0.629959        2.000000        0.00003200        0.00006365        0.00000038
     155         -0.629452        2.000000        0.00010150        0.00008948        0.00000168
     156         -0.629210        2.000000        0.00000068        0.00002120        0.00000262
     157         -0.628856        2.000000        0.00000154        0.00000291        0.00000020
     158         -0.628516        2.000000        0.00024197        0.00021546        0.00001865
     159         -0.628511        2.000000        0.00150993        0.00064083        0.00004355
     160         -0.628382        2.000000        0.00119052        0.00067429        0.00005232
     161         -0.628242        2.000000        0.00009931        0.00004626        0.00000340
     162         -0.628026        2.000000        0.00155283        0.00055793        0.00003417
     163         -0.627712        2.000000        0.01034389        0.00326748        0.00016937
     164         -0.627438        2.000000        0.00315585        0.00100943        0.00002258
     165         -0.627281        2.000000        0.00340477        0.00100615        0.00004073
     166         -0.626983        2.000000        0.00044299        0.00033561        0.00000238
     167         -0.626804        2.000000        0.00001964        0.00001199        0.00000050
     168         -0.626588        2.000000        0.00145211        0.00065818        0.00001930
     169         -0.626019        2.000000        0.00000181        0.00000191        0.00000001
     170         -0.625843        2.000000        0.00021594        0.00013346        0.00000722
     171         -0.625019        2.000000        0.00138117        0.00048379        0.00002229
     172         -0.624831        2.000000        0.00068965        0.00070058        0.00000521
     173         -0.624166        2.000000        0.00005915        0.00003386        0.00000065
     174         -0.623906        2.000000        0.00011554        0.00003890        0.00000171
     175         -0.623799        2.000000        0.00000247        0.00001520        0.00000020
     176         -0.623716        2.000000        0.00150113        0.00067330        0.00004904
     177         -0.623382        2.000000        0.00017033        0.00015902        0.00000178
     178         -0.623067        2.000000        0.00000072        0.00000192        0.00000001
     179         -0.622801        2.000000        0.00013714        0.00031684        0.00000105
     180         -0.622617        2.000000        0.00037875        0.00014315        0.00000891
     181         -0.622499        2.000000        0.00500293        0.00178313        0.00009061
     182         -0.621672        2.000000        0.00120015        0.00072031        0.00000963
     183         -0.621151        2.000000        0.00017128        0.00037366        0.00000165
     184         -0.620781        2.000000        0.00052241        0.00061279        0.00000393
     185         -0.620579        2.000000        0.00004864        0.00016960        0.00000521
     186         -0.619930        2.000000        0.00104092        0.00040901        0.00001793
     187         -0.618694        2.000000        0.00000213        0.00000251        0.00000018
     188         -0.618461        2.000000        0.00053544        0.00102589        0.00000337
     189         -0.618211        2.000000        0.00000002        0.00000035        0.00000000
     190         -0.617957        2.000000        0.00035275        0.00047702        0.00000283
     191         -0.617770        2.000000        0.00036271        0.00101363        0.00000314
     192         -0.617636        2.000000        0.00022482        0.00019194        0.00000210
     193         -0.617200        2.000000        0.00004131        0.00022083        0.00000480
     194         -0.616810        2.000000        0.00023490        0.00013833        0.00000308
     195         -0.615618        2.000000        0.00011944        0.00014839        0.00000118
     196         -0.615377        2.000000        0.00017191        0.00014993        0.00000499
     197         -0.615228        2.000000        0.00004071        0.00006618        0.00000058
     198         -0.614941        2.000000        0.00000286        0.00000233        0.00000010
     199         -0.613862        2.000000        0.00009033        0.00009211        0.00000044
     200         -0.613167        2.000000        0.00020267        0.00011510        0.00000295
     201         -0.612937        2.000000        0.00000921        0.00000488        0.00000018
     202         -0.612465        2.000000        0.00018003        0.00021218        0.00000967
     203         -0.611371        2.000000        0.00011660        0.00042942        0.00000218
     204         -0.611273        2.000000        0.00001819        0.00005665        0.00000032
     205         -0.610903        2.000000        0.00000802        0.00001814        0.00000063
     206         -0.609912        2.000000        0.00287180        0.00576201        0.00002069
     207         -0.609442        2.000000        0.00015027        0.00039896        0.00000158
     208         -0.609149        2.000000        0.00035585        0.00120869        0.00000621
     209         -0.608882        2.000000        0.00003153        0.00007461        0.00000026
     210         -0.608562        2.000000        0.00000068        0.00000244        0.00000001
     211         -0.608012        2.000000        0.00025516        0.00044450        0.00000059
     212         -0.607014        2.000000        0.00003373        0.00013886        0.00000078
     213         -0.606300        2.000000        0.00007219        0.00006805        0.00000033
     214         -0.605948        2.000000        0.00000209        0.00001095        0.00000004
     215         -0.605403        2.000000        0.00000515        0.00001384        0.00000046
     216         -0.604664        2.000000        0.00218638        0.00122816        0.00006116
     217         -0.604080        2.000000        0.00021737        0.00020159        0.00001168
     218         -0.603538        2.000000        0.00131120        0.00095146        0.00006649
     219         -0.603145        2.000000        0.00196107        0.00255765        0.00001653
     220         -0.602213        2.000000        0.00153885        0.00094290        0.00002251
     221         -0.601871        2.000000        0.00088533        0.00216318        0.00000984
     222         -0.600521        2.000000        0.00039679        0.00021648        0.00001133
     223         -0.599848        2.000000        0.00052795        0.00059490        0.00000362
     224         -0.598111        2.000000        0.00015419        0.00098050        0.00000629
     225         -0.597286        2.000000        0.00178462        0.00279695        0.00000355
     226         -0.597121        2.000000        0.00025661        0.00099552        0.00000461
     227         -0.595585        2.000000        0.00005852        0.00011078        0.00000005
     228         -0.591103        2.000000        0.00038189        0.00082364        0.00000375
     229         -0.582585        2.000000        0.00000005        0.00000082        0.00000000
     230         -0.576283        2.000000        0.00015063        0.00045688        0.00000071
     231         -0.258156        2.000000        0.00000000        0.00000000        0.00000000
     232         -0.253473        2.000000        0.00000000        0.00000001        0.00000000
     233         -0.246233        2.000000        0.00000000        0.00000000        0.00000000
     234         -0.244651        2.000000        0.00000000        0.00000000        0.00000000
     235         -0.243092        2.000000        0.00000000        0.00000000        0.00000000
     236         -0.242544        2.000000        0.00000000        0.00000000        0.00000000
     237         -0.241048        2.000000        0.00000000        0.00000000        0.00000000
     238         -0.240546        2.000000        0.00000007        0.00000038        0.00000001
     239         -0.237982        2.000000        0.00000005        0.00000032        0.00000000
     240         -0.237798        2.000000        0.00000000        0.00000000        0.00000000
     241         -0.236566        2.000000        0.00000000        0.00000000        0.00000000
     242         -0.235920        2.000000        0.00000000        0.00000000        0.00000000
     243         -0.233145        2.000000        0.00000000        0.00000000        0.00000000
     244         -0.232785        2.000000        0.00000005        0.00000023        0.00000000
     245         -0.232224        2.000000        0.00000002        0.00000010        0.00000000
     246         -0.232174        2.000000        0.00000000        0.00000001        0.00000000
     247         -0.232015        2.000000        0.00000000        0.00000000        0.00000000
     248         -0.230744        2.000000        0.00000000        0.00000001        0.00000000
     249         -0.230697        2.000000        0.00000004        0.00000020        0.00000000
     250         -0.229959        2.000000        0.00000000        0.00000001        0.00000000
     251         -0.229741        2.000000        0.00000240        0.00001098        0.00000016
     252         -0.228898        2.000000        0.00000069        0.00000303        0.00000004
     253         -0.227939        2.000000        0.00000181        0.00000889        0.00000013
     254         -0.227542        2.000000        0.00000037        0.00000151        0.00000002
     255         -0.227010        2.000000        0.00001325        0.00005102        0.00000077
     256         -0.226860        2.000000        0.00000025        0.00000068        0.00000002
     257         -0.226780        2.000000        0.00000020        0.00000075        0.00000001
     258         -0.226656        2.000000        0.00000220        0.00001083        0.00000015
     259         -0.226503        2.000000        0.00000006        0.00000019        0.00000000
     260         -0.226036        2.000000        0.00000094        0.00000418        0.00000006
     261         -0.225667        2.000000        0.00000000        0.00000001        0.00000000
     262         -0.225511        2.000000        0.00000013        0.00000098        0.00000001
     263         -0.224716        2.000000        0.00002545        0.00010995        0.00000160
     264         -0.224218        2.000000        0.00003098        0.00013246        0.00000188
     265         -0.223677        2.000000        0.00000006        0.00000036        0.00000000
     266         -0.223438        2.000000        0.00007309        0.00030262        0.00000465
     267         -0.223292        2.000000        0.00002414        0.00012339        0.00000156
     268         -0.223025        2.000000        0.00000049        0.00000222        0.00000004
     269         -0.222436        2.000000        0.00000693        0.00002875        0.00000044
     270         -0.222159        2.000000        0.00000000        0.00000001        0.00000000
     271         -0.221905        2.000000        0.00001596        0.00006303        0.00000092
     272         -0.221185        2.000000        0.00000002        0.00000006        0.00000000
     273         -0.220659        2.000000        0.00000034        0.00000276        0.00000004
     274         -0.219665        2.000000        0.00005189        0.00021424        0.00000307
     275         -0.219630        2.000000        0.00000124        0.00000601        0.00000007
     276         -0.218916        2.000000        0.00014582        0.00054788        0.00000808
     277         -0.218551        2.000000        0.00000134        0.00000460        0.00000008
     278         -0.218398        2.000000        0.00000033        0.00000125        0.00000002
     279         -0.218139        2.000000        0.00001466        0.00005009        0.00000086
     280         -0.217698        2.000000        0.00002012        0.00009526        0.00000122
     281         -0.217580        2.000000        0.00001723        0.00006064        0.00000101
     282         -0.217435        2.000000        0.00000251        0.00000869        0.00000014
     283         -0.216483        2.000000        0.00010772        0.00039412        0.00000627
     284         -0.216363        2.000000        0.00000195        0.00000738        0.00000011
     285         -0.216254        2.000000        0.00044520        0.00159404        0.00002527
     286         -0.215958        2.000000        0.00000201        0.00000655        0.00000012
     287         -0.215645        2.000000        0.00000055        0.00000209        0.00000003
     288         -0.215217        2.000000        0.00000416        0.00001872        0.00000024
     289         -0.214936        2.000000        0.00002005        0.00007588        0.00000111
     290         -0.214221        2.000000        0.00006102        0.00021826        0.00000333
     291         -0.213816        2.000000        0.00007978        0.00024979        0.00000472
     292         -0.213592        2.000000        0.00000003        0.00000011        0.00000000
     293         -0.213468        2.000000        0.00006959        0.00023578        0.00000386
     294         -0.213241        2.000000        0.00052779        0.00175426        0.00002963
     295         -0.213184        2.000000        0.00000391        0.00001319        0.00000022
     296         -0.212817        2.000000        0.00000023        0.00000077        0.00000001
     297         -0.212583        2.000000        0.00000275        0.00000875        0.00000016
     298         -0.212273        2.000000        0.00001522        0.00004837        0.00000086
     299         -0.211896        2.000000        0.01038501        0.03399998        0.00058082
     300         -0.211391        2.000000        0.00058627        0.00190204        0.00003275
     301         -0.211339        2.000000        0.00114741        0.00367703        0.00006480
     302         -0.211269        2.000000        0.00000571        0.00001946        0.00000030
     303         -0.211046        2.000000        0.00272227        0.00867557        0.00015367
     304         -0.210412        2.000000        0.09502673        0.29971589        0.00537507
     305         -0.210309        2.000000        0.01787020        0.05610685        0.00101224
     306         -0.210188        2.000000        0.01140002        0.03560532        0.00064858
     307         -0.210166        2.000000        0.00034513        0.00107651        0.00001974