# Projected DOS for list 103 of 3 atoms, at iteration step i = 0, E(Fermi) =     0.101540 a.u.
#     MO Eigenvalue [a.u.]      Occupation                 s                 p                 d
       1         -0.708367        2.000000        0.00000000        0.00000000        0.00000000
       2         -0.696979        2.000000        0.00000000        0.00000000        0.00000000
       3         -0.695301        2.000000        0.00000000        0.00000000        0.00000000
       4         -0.694902        2.000000        0.00016285        0.00014858        0.00000581
       5         -0.690081        2.000000        0.00007135        0.00007427        0.00000059
       6         -0.686805        2.000000        0.00000000        0.00000000        0.00000000
       7         -0.686571        2.000000        0.00000000        0.00000000        0.00000000
       8         -0.685003        2.000000        0.00000000        0.00000000        0.00000000
       9         -0.684036        2.000000        0.00000000        0.00000000        0.00000000
      10         -0.683920        2.000000        0.00000178        0.00001903        0.00000020
      11         -0.681735        2.000000        0.00000000        0.00000000        0.00000000
      12         -0.679408        2.000000        0.00000000        0.00000000        0.00000000
      13         -0.678932        2.000000        0.00110961        0.00017340        0.00000377
      14         -0.678381        2.000000        0.00000000        0.00000000        0.00000000
      15         -0.677963        2.000000        0.00000000        0.00000000        0.00000000
      16         -0.677540        2.000000        0.00000000        0.00000000        0.00000000
      17         -0.677381        2.000000        0.00001767        0.00009972        0.00000094
      18         -0.677246        2.000000        0.00000000        0.00000000        0.00000000
      19         -0.675827        2.000000        0.00000000        0.00000000        0.00000000
      20         -0.675724        2.000000        0.00083271        0.00078137        0.00000671
      21         -0.674932        2.000000        0.01404721        0.00929884        0.00009517
      22         -0.674380        2.000000        0.00000000        0.00000000        0.00000000
      23         -0.673393        2.000000        0.00000000        0.00000000        0.00000000
      24         -0.672924        2.000000        0.00013662        0.00016468        0.00000170
      25         -0.672289        2.000000        0.00000000        0.00000000        0.00000000
      26         -0.672227        2.000000        0.00000145        0.00000101        0.00000001
      27         -0.671275        2.000000        0.00000197        0.00000811        0.00000004
      28         -0.670770        2.000000        0.00000001        0.00000001        0.00000000
      29         -0.670400        2.000000        0.00000003        0.00000002        0.00000000
      30         -0.669922        2.000000        0.00000002        0.00000001        0.00000000
      31         -0.669606        2.000000        0.00165336        0.00087429        0.00000933
      32         -0.668947        2.000000        0.00000514        0.00005706        0.00000044
      33         -0.668931        2.000000        0.00002086        0.00012721        0.00000091
      34         -0.668431        2.000000        0.00000138        0.00000086        0.00000001
      35         -0.668008        2.000000        0.00000057        0.00000031        0.00000000
      36         -0.667083        2.000000        0.00000019        0.00000011        0.00000000
      37         -0.666996        2.000000        0.00000586        0.00000597        0.00000005
      38         -0.666939        2.000000        0.00000001        0.00000001        0.00000000
      39         -0.666646        2.000000        0.00000011        0.00000006        0.00000000
      40         -0.666363        2.000000        0.00000009        0.00000027        0.00000000
      41         -0.666281        2.000000        0.00003048        0.00052580        0.00000740
      42         -0.666129        2.000000        0.00000188        0.00000087        0.00000002
      43         -0.665867        2.000000        0.00000041        0.00000015        0.00000000
      44         -0.664404        2.000000        0.00000648        0.00002558        0.00000015
      45         -0.664061        2.000000        0.00002507        0.00000626        0.00000008
      46         -0.663948        2.000000        0.00184680        0.00051811        0.00000648
      47         -0.663550        2.000000        0.00001467        0.00000357        0.00000004
      48         -0.662943        2.000000        0.00000378        0.00007203        0.00000093
      49         -0.662627        2.000000        0.00000000        0.00000000        0.00000000
      50         -0.661965        2.000000        0.00000247        0.00000046        0.00000000
      51         -0.661528        2.000000        0.00145708        0.00084532        0.00000387
      52         -0.660900        2.000000        0.00004042        0.00003138        0.00000025
      53         -0.660166        2.000000        0.00000001        0.00000000        0.00000000
      54         -0.659683        2.000000        0.00011297        0.00005462        0.00000021
      55         -0.658835        2.000000        0.00000009        0.00000026        0.00000000
      56         -0.658814        2.000000        0.00041509        0.00014476        0.00000020
      57         -0.658691        2.000000        0.00220872        0.00077121        0.00000418
      58         -0.658084        2.000000        0.00030780        0.00008028        0.00000016
      59         -0.658073        2.000000        0.00088124        0.00023790        0.00000046
      60         -0.657975        2.000000        0.00000025        0.00000083        0.00000001
      61         -0.657678        2.000000        0.00000006        0.00000032        0.00000000
      62         -0.657592        2.000000        0.00000277        0.00000048        0.00000000
      63         -0.657226        2.000000        0.00026199        0.00012223        0.00000036
      64         -0.657087        2.000000        0.00001113        0.00000194        0.00000002
      65         -0.656742        2.000000        0.00009339        0.00001601        0.00000017
      66         -0.656449        2.000000        0.00002042        0.00000376        0.00000001
      67         -0.656215        2.000000        0.00004731        0.00001009        0.00000002
      68         -0.655700        2.000000        0.00000204        0.00000706        0.00000007
      69         -0.655174        2.000000        0.00072996        0.00019153        0.00000118
      70         -0.654827        2.000000        0.00000159        0.00000025        0.00000000
      71         -0.654660        2.000000        0.00033466        0.00004793        0.00000095
      72         -0.654406        2.000000        0.00000002        0.00000011        0.00000000
      73         -0.654250        2.000000        0.00000000        0.00000004        0.00000000
      74         -0.653619        2.000000        0.00651494        0.00188028        0.00000397
      75         -0.653105        2.000000        0.00002842        0.00000983        0.00000030
      76         -0.652904        2.000000        0.00082414        0.00021920        0.00000073
      77         -0.652612        2.000000        0.00001870        0.00000497        0.00000001
      78         -0.652411        2.000000        0.00000574        0.00000097        0.00000001
      79         -0.652213        2.000000        0.00072945        0.00014985        0.00000350
      80         -0.652083        2.000000        0.00010549        0.00004954        0.00000111
      81         -0.651807        2.000000        0.00000133        0.00001232        0.00000022
      82         -0.651706        2.000000        0.00122516        0.00041284        0.00000101
      83         -0.651237        2.000000        0.00114951        0.00021364        0.00000153
      84         -0.651053        2.000000        0.00108603        0.00018732        0.00000144
      85         -0.650411        2.000000        0.00274970        0.00065561        0.00000521
      86         -0.650326        2.000000        0.00003763        0.00015813        0.00000206
      87         -0.650219        2.000000        0.00023916        0.00008660        0.00000061
      88         -0.650130        2.000000        0.00136514        0.00064547        0.00000476
      89         -0.649849        2.000000        0.00177535        0.00103137        0.00000899
      90         -0.649510        2.000000        0.00013021        0.00007148        0.00000055
      91         -0.648737        2.000000        0.00114305        0.00020106        0.00000497
      92         -0.648608        2.000000        0.01106733        0.00200063        0.00001503
      93         -0.648509        2.000000        0.00030518        0.00007047        0.00000036
      94         -0.648091        2.000000        0.00655645        0.00289678        0.00001486
      95         -0.647956        2.000000        0.00219120        0.00069641        0.00000294
      96         -0.647875        2.000000        0.00001995        0.00001632        0.00000010
      97         -0.647628        2.000000        0.00000681        0.00000796        0.00000006
      98         -0.647248        2.000000        0.00001039        0.00000398        0.00000009
      99         -0.646997        2.000000        0.00788412        0.00232562        0.00004524
     100         -0.646893        2.000000        0.01232869        0.00141501        0.00004801
     101         -0.646794        2.000000        0.00000725        0.00000277        0.00000007
     102         -0.645843        2.000000        0.00118872        0.00019493        0.00000508
     103         -0.645519        2.000000        0.00061037        0.00009936        0.00000249
     104         -0.645232        2.000000        0.00091483        0.00014751        0.00000359
     105         -0.644964        2.000000        0.00003521        0.00000578        0.00000014
     106         -0.644451        2.000000        0.00007014        0.00001385        0.00000049
     107         -0.644170        2.000000        0.00002947        0.00000533        0.00000014
     108         -0.643891        2.000000        0.00034721        0.00005900        0.00000116
     109         -0.643862        2.000000        0.00002660        0.00000789        0.00000033
     110         -0.643478        2.000000        0.00004340        0.00001408        0.00000002
     111         -0.643325        2.000000        0.00053057        0.00013011        0.00000041
     112         -0.642934        2.000000        0.00026423        0.00012783        0.00000630
     113         -0.642899        2.000000        0.00000000        0.00000007        0.00000001
     114         -0.642460        2.000000        0.00000658        0.00000152        0.00000001
     115         -0.642175        2.000000        0.03917192        0.00709850        0.00006964
     116         -0.642120        2.000000        0.00017547        0.00003433        0.00000022
     117         -0.641851        2.000000        0.00625113        0.00101144        0.00001901
     118         -0.641683        2.000000        0.00145231        0.00024673        0.00000296
     119         -0.641305        2.000000        0.00006181        0.00008160        0.00000045
     120         -0.641072        2.000000        0.00044775        0.00006768        0.00000162
     121         -0.640960        2.000000        0.01052246        0.00166912        0.00004096
     122         -0.640793        2.000000        0.00000748        0.00000756        0.00000017
     123         -0.640578        2.000000        0.00048820        0.00008116        0.00000099
     124         -0.640464        2.000000        0.00502021        0.00079115        0.00001233
     125         -0.640169        2.000000        0.01381907        0.00227334        0.00003559
     126         -0.639736        2.000000        0.00208444        0.00033146        0.00000901
     127         -0.639499        2.000000        0.00595914        0.00094252        0.00002547
     128         -0.639154        2.000000        0.00003811        0.00003527        0.00000105
     129         -0.639060        2.000000        0.00665153        0.00136761        0.00005530
     130         -0.638976        2.000000        0.00215197        0.00040627        0.00001435
     131         -0.638593        2.000000        0.00002477        0.00005434        0.00000128
     132         -0.638261        2.000000        0.00006185        0.00001457        0.00000019
     133         -0.638059        2.000000        0.00009384        0.00001475        0.00000037
     134         -0.637912        2.000000        0.00089864        0.00018377        0.00000209
     135         -0.637762        2.000000        0.00011268        0.00003208        0.00000024
     136         -0.637584        2.000000        0.01340516        0.00693596        0.00004812
     137         -0.636804        2.000000        0.00000166        0.00000261        0.00000006
     138         -0.636640        2.000000        0.00041319        0.00018404        0.00000609
     139         -0.636429        2.000000        0.00096831        0.00074242        0.00002162
     140         -0.635515        2.000000        0.00397079        0.00087470        0.00003119
     141         -0.634989        2.000000        0.00251426        0.00040955        0.00001300
     142         -0.634462        2.000000        0.00046361        0.00007068        0.00000196
     143         -0.634132        2.000000        0.00000608        0.00001361        0.00000085
     144         -0.633763        2.000000        0.00266386        0.00064480        0.00003081
     145         -0.633531        2.000000        0.00000360        0.00000069        0.00000003
     146         -0.632585        2.000000        0.00016976        0.00003539        0.00000131
     147         -0.632333        2.000000        0.00172503        0.00029344        0.00000937
     148         -0.632031        2.000000        0.00000473        0.00125542        0.00014135
     149         -0.631841        2.000000        0.00066306        0.00013385        0.00000154
     150         -0.631318        2.000000        0.00038002        0.00006384        0.00000190
     151         -0.630640        2.000000        0.00141386        0.00023347        0.00000565
     152         -0.630519        2.000000        0.00009106        0.00001604        0.00000039
     153         -0.630490        2.000000        0.00000463        0.00000092        0.00000002
     154         -0.629959        2.000000        0.00209948        0.00041433        0.00000447
     155         -0.629452        2.000000        0.00147867        0.00030356        0.00000358
     156         -0.629210        2.000000        0.00000749        0.00000165        0.00000002
     157         -0.628856        2.000000        0.00341362        0.00095171        0.00001985
     158         -0.628516        2.000000        0.00135708        0.00028196        0.00000312
     159         -0.628511        2.000000        0.00147504        0.00032574        0.00000323
     160         -0.628382        2.000000        0.00073425        0.00018334        0.00000223
     161         -0.628242        2.000000        0.03029841        0.00623942        0.00007127
     162         -0.628026        2.000000        0.02791775        0.00574334        0.00006499
     163         -0.627712        2.000000        0.00399448        0.00084077        0.00000909
     164         -0.627438        2.000000        0.00012696        0.00003137        0.00000030
     165         -0.627281        2.000000        0.00217964        0.00047820        0.00000452
     166         -0.626983        2.000000        0.00051988        0.00012175        0.00000102
     167         -0.626804        2.000000        0.01573793        0.00361498        0.00003299
     168         -0.626588        2.000000        0.00093629        0.00020564        0.00000212
     169         -0.626019        2.000000        0.00213249        0.00166116        0.00008008
     170         -0.625843        2.000000        0.00114787        0.00027678        0.00000213
     171         -0.625019        2.000000        0.00007344        0.00001707        0.00000015
     172         -0.624831        2.000000        0.01749765        0.00449871        0.00003104
     173         -0.624166        2.000000        0.16845173        0.04386870        0.00029768
     174         -0.623906        2.000000        0.00245895        0.00064986        0.00000426
     175         -0.623799        2.000000        0.01396806        0.00383243        0.00002159
     176         -0.623716        2.000000        0.00163970        0.00043443        0.00000286
     177         -0.623382        2.000000        0.02679804        0.00735071        0.00004435
     178         -0.623067        2.000000        0.00001851        0.00000510        0.00000003
     179         -0.622801        2.000000        0.00463032        0.00130302        0.00000754
     180         -0.622617        2.000000        0.02919613        0.00859306        0.00004345
     181         -0.622499        2.000000        0.00264885        0.00078907        0.00000387
     182         -0.621672        2.000000        0.00013073        0.00004540        0.00000015
     183         -0.621151        2.000000        0.00030324        0.00009804        0.00000043
     184         -0.620781        2.000000        0.00094689        0.00030436        0.00000138
     185         -0.620579        2.000000        0.00028243        0.00012548        0.00000021
     186         -0.619930        2.000000        0.00001096        0.00001069        0.00000002
     187         -0.618694        2.000000        0.00000010        0.00000006        0.00000000
     188         -0.618461        2.000000        0.00062549        0.00011260        0.00000398
     189         -0.618211        2.000000        0.00000020        0.00000164        0.00000002
     190         -0.617957        2.000000        0.00013307        0.00015269        0.00000039
     191         -0.617770        2.000000        0.00008104        0.00001564        0.00000072
     192         -0.617636        2.000000        0.00048245        0.00035185        0.00000050
     193         -0.617200        2.000000        0.00008191        0.00002986        0.00000012
     194         -0.616810        2.000000        0.00144513        0.00083776        0.00000123
     195         -0.615618        2.000000        0.00170157        0.00409445        0.00002332
     196         -0.615377        2.000000        0.00000845        0.00004055        0.00000037
     197         -0.615228        2.000000        0.00029832        0.00234361        0.00003051
     198         -0.614941        2.000000        0.00000007        0.00000026        0.00000001
     199         -0.613862        2.000000        0.00005305        0.00001413        0.00000044
     200         -0.613167        2.000000        0.00000717        0.00000559        0.00000001
     201         -0.612937        2.000000        0.00000001        0.00000000        0.00000000
     202         -0.612465        2.000000        0.00000019        0.00000005        0.00000000
     203         -0.611371        2.000000        0.01542068        0.00496042        0.00003877
     204         -0.611273        2.000000        0.16537319        0.05366828        0.00041197
     205         -0.610903        2.000000        0.00724722        0.00244682        0.00001723
     206         -0.609912        2.000000        0.00005306        0.00001898        0.00000012
     207         -0.609442        2.000000        0.00000148        0.00000064        0.00000000
     208         -0.609149        2.000000        0.00009222        0.00003745        0.00000023
     209         -0.608882        2.000000        0.00035371        0.00034363        0.00000117
     210         -0.608562        2.000000        0.00200514        0.00057295        0.00000728
     211         -0.608012        2.000000        0.00012989        0.00006229        0.00000029
     212         -0.607014        2.000000        0.00016831        0.00007524        0.00000033
     213         -0.606300        2.000000        0.00004113        0.00001968        0.00000008
     214         -0.605948        2.000000        0.00000003        0.00000002        0.00000000
     215         -0.605403        2.000000        0.00000023        0.00000010        0.00000000
     216         -0.604664        2.000000        0.00001440        0.00000711        0.00000003
     217         -0.604080        2.000000        0.00006212        0.00003301        0.00000012
     218         -0.603538        2.000000        0.00008328        0.00004445        0.00000017
     219         -0.603145        2.000000        0.00002570        0.00001355        0.00000005
     220         -0.602213        2.000000        0.00005255        0.00002987        0.00000011
     221         -0.601871        2.000000        0.00000276        0.00000181        0.00000001
     222         -0.600521        2.000000        0.00000000        0.00000001        0.00000000
     223         -0.599848        2.000000        0.00001688        0.00000971        0.00000003
     224         -0.598111        2.000000        0.00005061        0.00003138        0.00000012
     225         -0.597286        2.000000        0.00000696        0.00000440        0.00000002
     226         -0.597121        2.000000        0.00000248        0.00000160        0.00000001
     227         -0.595585        2.000000        0.00000000        0.00000001        0.00000000
     228         -0.591103        2.000000        0.00000000        0.00000000        0.00000000
     229         -0.582585        2.000000        0.00000000        0.00000000        0.00000000
     230         -0.576283        2.000000        0.00000000        0.00000000        0.00000000
     231         -0.258156        2.000000        0.00000000        0.00000000        0.00000000
     232         -0.253473        2.000000        0.00000000        0.00000000        0.00000000
     233         -0.246233        2.000000        0.00000000        0.00000000        0.00000000
     234         -0.244651        2.000000        0.00000000        0.00000000        0.00000000
     235         -0.243092        2.000000        0.00000000        0.00000000        0.00000000
     236         -0.242544        2.000000        0.00002885        0.00017098        0.00000261
     237         -0.241048        2.000000        0.00000000        0.00000000        0.00000000
     238         -0.240546        2.000000        0.00000000        0.00000000        0.00000000
     239         -0.237982        2.000000        0.00000001        0.00000003        0.00000000
     240         -0.237798        2.000000        0.00005735        0.00015011        0.00000347
     241         -0.236566        2.000000        0.00000025        0.00000146        0.00000002
     242         -0.235920        2.000000        0.00000007        0.00000058        0.00000000
     243         -0.233145        2.000000        0.00000942        0.00003097        0.00000077
     244         -0.232785        2.000000        0.00000000        0.00000001        0.00000000
     245         -0.232224        2.000000        0.00000000        0.00000001        0.00000000
     246         -0.232174        2.000000        0.00022036        0.00121986        0.00002285
     247         -0.232015        2.000000        0.00015887        0.00094591        0.00001649
     248         -0.230744        2.000000        0.00007903        0.00041950        0.00000736
     249         -0.230697        2.000000        0.00000017        0.00000097        0.00000002
     250         -0.229959        2.000000        0.00001808        0.00006257        0.00000102
     251         -0.229741        2.000000        0.00000001        0.00000003        0.00000000
     252         -0.228898        2.000000        0.00000001        0.00000003        0.00000000
     253         -0.227939        2.000000        0.00000001        0.00000002        0.00000000
     254         -0.227542        2.000000        0.00000000        0.00000000        0.00000000
     255         -0.227010        2.000000        0.00000000        0.00000000        0.00000000
     256         -0.226860        2.000000        0.00000500        0.00002412        0.00000076
     257         -0.226780        2.000000        0.00000000        0.00000001        0.00000000
     258         -0.226656        2.000000        0.00000000        0.00000001        0.00000000
     259         -0.226503        2.000000        0.00028884        0.00080446        0.00001419
     260         -0.226036        2.000000        0.00000003        0.00000009        0.00000000
     261         -0.225667        2.000000        0.00780921        0.02060605        0.00044443
     262         -0.225511        2.000000        0.00001062        0.00003065        0.00000064
     263         -0.224716        2.000000        0.00000031        0.00000087        0.00000002
     264         -0.224218        2.000000        0.00000011        0.00000031        0.00000001
     265         -0.223677        2.000000        0.00263984        0.00764863        0.00014975
     266         -0.223438        2.000000        0.00000450        0.00001322        0.00000026
     267         -0.223292        2.000000        0.00000006        0.00000018        0.00000000
     268         -0.223025        2.000000        0.00000101        0.00000305        0.00000006
     269         -0.222436        2.000000        0.00000025        0.00000084        0.00000002
     270         -0.222159        2.000000        0.00001016        0.00003795        0.00000085
     271         -0.221905        2.000000        0.00000004        0.00000017        0.00000000
     272         -0.221185        2.000000        0.00004373        0.00012556        0.00000420
     273         -0.220659        2.000000        0.00000001        0.00000005        0.00000000
     274         -0.219665        2.000000        0.00000343        0.00001372        0.00000047
     275         -0.219630        2.000000        0.00009106        0.00041090        0.00001590
     276         -0.218916        2.000000        0.00000056        0.00000155        0.00000003
     277         -0.218551        2.000000        0.00013688        0.00035885        0.00000706
     278         -0.218398        2.000000        0.00010833        0.00031665        0.00000778
     279         -0.218139        2.000000        0.00153386        0.00619245        0.00013987
     280         -0.217698        2.000000        0.00000850        0.00006266        0.00000216
     281         -0.217580        2.000000        0.00127874        0.00627671        0.00017415
     282         -0.217435        2.000000        0.00005275        0.00022102        0.00000553
     283         -0.216483        2.000000        0.00001159        0.00003312        0.00000079
     284         -0.216363        2.000000        0.00132762        0.00419363        0.00010693
     285         -0.216254        2.000000        0.00000970        0.00003004        0.00000075
     286         -0.215958        2.000000        0.00294293        0.00747684        0.00014571
     287         -0.215645        2.000000        0.00014658        0.00062794        0.00001647
     288         -0.215217        2.000000        0.00000132        0.00000383        0.00000008
     289         -0.214936        2.000000        0.00000005        0.00000016        0.00000000
     290         -0.214221        2.000000        0.00000020        0.00000205        0.00000005
     291         -0.213816        2.000000        0.00000473        0.00001530        0.00000032
     292         -0.213592        2.000000        0.00140307        0.00707404        0.00016494
     293         -0.213468        2.000000        0.00001540        0.00003934        0.00000081
     294         -0.213241        2.000000        0.00000719        0.00001803        0.00000036
     295         -0.213184        2.000000        0.00209130        0.00611390        0.00012287
     296         -0.212817        2.000000        0.00030297        0.00263691        0.00007394
     297         -0.212583        2.000000        0.00000299        0.00001504        0.00000036
     298         -0.212273        2.000000        0.00108844        0.00300697        0.00005789
     299         -0.211896        2.000000        0.00000280        0.00000841        0.00000016
     300         -0.211391        2.000000        0.00062208        0.00158764        0.00003451
     301         -0.211339        2.000000        0.00018312        0.00045969        0.00000960
     302         -0.211269        2.000000        0.00039631        0.00098873        0.00002024
     303         -0.211046        2.000000        0.00102462        0.00267683        0.00005258
     304         -0.210412        2.000000        0.00177619        0.00448744        0.00008874
     305         -0.210309        2.000000        0.00930246        0.02334183        0.00047335
     306         -0.210188        2.000000        0.00985093        0.02489090        0.00051443
     307         -0.210166        2.000000        0.00651428        0.01648989        0.00034322