# Projected DOS for list 187 of 3 atoms, at iteration step i = 0, E(Fermi) =     0.101540 a.u.
#     MO Eigenvalue [a.u.]      Occupation                 s                 p                 d
       1         -0.708367        2.000000        0.00000000        0.00000000        0.00000000
       2         -0.696979        2.000000        0.00022185        0.00007180        0.00000051
       3         -0.695301        2.000000        0.00000131        0.00000082        0.00000001
       4         -0.694902        2.000000        0.00000000        0.00000000        0.00000000
       5         -0.690081        2.000000        0.00000000        0.00000000        0.00000000
       6         -0.686805        2.000000        0.00153651        0.00029493        0.00000433
       7         -0.686571        2.000000        0.00010417        0.00001913        0.00000027
       8         -0.685003        2.000000        0.00053724        0.00010326        0.00000122
       9         -0.684036        2.000000        0.02741847        0.00525422        0.00006794
      10         -0.683920        2.000000        0.00000000        0.00000000        0.00000000
      11         -0.681735        2.000000        0.02323637        0.00411527        0.00006688
      12         -0.679408        2.000000        0.00002858        0.00000750        0.00000008
      13         -0.678932        2.000000        0.00000000        0.00000000        0.00000000
      14         -0.678381        2.000000        0.02264239        0.00339863        0.00004541
      15         -0.677963        2.000000        0.00342019        0.00072459        0.00000988
      16         -0.677540        2.000000        0.08402819        0.01383116        0.00017162
      17         -0.677381        2.000000        0.00000001        0.00000000        0.00000000
      18         -0.677246        2.000000        0.07226765        0.01162626        0.00014436
      19         -0.675827        2.000000        0.00138619        0.00026807        0.00000240
      20         -0.675724        2.000000        0.00000000        0.00000000        0.00000000
      21         -0.674932        2.000000        0.00000000        0.00000000        0.00000000
      22         -0.674380        2.000000        0.00787008        0.00116816        0.00001364
      23         -0.673393        2.000000        0.00006481        0.00001832        0.00000011
      24         -0.672924        2.000000        0.00000001        0.00000001        0.00000000
      25         -0.672289        2.000000        0.00024198        0.00004359        0.00000040
      26         -0.672227        2.000000        0.00024002        0.00020686        0.00000186
      27         -0.671275        2.000000        0.00000003        0.00000003        0.00000000
      28         -0.670770        2.000000        0.01102807        0.00317081        0.00001891
      29         -0.670400        2.000000        0.01873963        0.00439687        0.00002789
      30         -0.669922        2.000000        0.05351316        0.01198971        0.00007872
      31         -0.669606        2.000000        0.00000163        0.00000109        0.00000001
      32         -0.668947        2.000000        0.00144651        0.00066747        0.00000546
      33         -0.668931        2.000000        0.00099670        0.00042723        0.00000327
      34         -0.668431        2.000000        0.00763650        0.00177877        0.00001278
      35         -0.668008        2.000000        0.00002063        0.00014161        0.00000222
      36         -0.667083        2.000000        0.00078016        0.00035728        0.00000236
      37         -0.666996        2.000000        0.00000172        0.00000051        0.00000000
      38         -0.666939        2.000000        0.00006993        0.00005020        0.00000061
      39         -0.666646        2.000000        0.00420937        0.00105319        0.00000536
      40         -0.666363        2.000000        0.00646488        0.00301004        0.00001889
      41         -0.666281        2.000000        0.00001299        0.00000354        0.00000002
      42         -0.666129        2.000000        0.04884666        0.01421574        0.00007099
      43         -0.665867        2.000000        0.00458135        0.00250484        0.00001753
      44         -0.664404        2.000000        0.00012973        0.00004215        0.00000015
      45         -0.664061        2.000000        0.05609458        0.01753211        0.00007134
      46         -0.663948        2.000000        0.00222898        0.00065386        0.00000303
      47         -0.663550        2.000000        0.02690496        0.00852497        0.00002944
      48         -0.662943        2.000000        0.00000024        0.00000011        0.00000000
      49         -0.662627        2.000000        0.00006382        0.00021321        0.00000510
      50         -0.661965        2.000000        0.01821810        0.01183859        0.00004877
      51         -0.661528        2.000000        0.00000120        0.00000159        0.00000002
      52         -0.660900        2.000000        0.00005147        0.00001529        0.00000006
      53         -0.660166        2.000000        0.00017055        0.00042087        0.00000547
      54         -0.659683        2.000000        0.00000117        0.00000045        0.00000000
      55         -0.658835        2.000000        0.00080545        0.00196518        0.00002828
      56         -0.658814        2.000000        0.00000114        0.00000543        0.00000008
      57         -0.658691        2.000000        0.00000025        0.00000069        0.00000001
      58         -0.658084        2.000000        0.00017422        0.00004369        0.00000098
      59         -0.658073        2.000000        0.00004467        0.00001491        0.00000015
      60         -0.657975        2.000000        0.00008443        0.00060019        0.00000915
      61         -0.657678        2.000000        0.00018673        0.00006992        0.00000021
      62         -0.657592        2.000000        0.00010513        0.00009363        0.00000430
      63         -0.657226        2.000000        0.00000214        0.00000056        0.00000001
      64         -0.657087        2.000000        0.00413376        0.00101198        0.00001774
      65         -0.656742        2.000000        0.00003575        0.00002659        0.00000045
      66         -0.656449        2.000000        0.01198967        0.00296766        0.00004116
      67         -0.656215        2.000000        0.01189787        0.00254872        0.00006088
      68         -0.655700        2.000000        0.00120524        0.00026808        0.00001117
      69         -0.655174        2.000000        0.00000387        0.00000118        0.00000001
      70         -0.654827        2.000000        0.01155630        0.00286808        0.00004401
      71         -0.654660        2.000000        0.00004564        0.00001231        0.00000015
      72         -0.654406        2.000000        0.04881390        0.01245029        0.00016972
      73         -0.654250        2.000000        0.00986565        0.00319585        0.00002099
      74         -0.653619        2.000000        0.00003377        0.00000867        0.00000018
      75         -0.653105        2.000000        0.00004164        0.00002849        0.00000036
      76         -0.652904        2.000000        0.00019066        0.00004845        0.00000059
      77         -0.652612        2.000000        0.00076017        0.00028103        0.00001143
      78         -0.652411        2.000000        0.00008323        0.00015800        0.00000868
      79         -0.652213        2.000000        0.00000809        0.00000401        0.00000013
      80         -0.652083        2.000000        0.00000337        0.00002089        0.00000063
      81         -0.651807        2.000000        0.00336629        0.00149517        0.00000432
      82         -0.651706        2.000000        0.00069972        0.00028372        0.00000091
      83         -0.651237        2.000000        0.00474011        0.00257251        0.00000556
      84         -0.651053        2.000000        0.00658969        0.00333468        0.00000753
      85         -0.650411        2.000000        0.00045344        0.00011796        0.00000293
      86         -0.650326        2.000000        0.00380165        0.00110864        0.00001334
      87         -0.650219        2.000000        0.00062014        0.00024244        0.00001124
      88         -0.650130        2.000000        0.01321384        0.00446137        0.00003087
      89         -0.649849        2.000000        0.00040639        0.00025018        0.00000037
      90         -0.649510        2.000000        0.01147781        0.00445695        0.00001968
      91         -0.648737        2.000000        0.00078931        0.00032375        0.00000140
      92         -0.648608        2.000000        0.00023788        0.00007125        0.00000073
      93         -0.648509        2.000000        0.01387110        0.00422083        0.00004785
      94         -0.648091        2.000000        0.00026312        0.00009806        0.00000098
      95         -0.647956        2.000000        0.00000090        0.00000060        0.00000000
      96         -0.647875        2.000000        0.00311276        0.00119313        0.00000521
      97         -0.647628        2.000000        0.00091141        0.00022075        0.00000542
      98         -0.647248        2.000000        0.00012925        0.00005358        0.00000070
      99         -0.646997        2.000000        0.00002503        0.00000931        0.00000007
     100         -0.646893        2.000000        0.00000954        0.00000318        0.00000003
     101         -0.646794        2.000000        0.00105609        0.00070773        0.00005539
     102         -0.645843        2.000000        0.00055706        0.00026876        0.00001710
     103         -0.645519        2.000000        0.00006048        0.00064034        0.00001166
     104         -0.645232        2.000000        0.00016284        0.00016622        0.00000447
     105         -0.644964        2.000000        0.00198634        0.00140385        0.00000714
     106         -0.644451        2.000000        0.00014961        0.00016797        0.00000364
     107         -0.644170        2.000000        0.00636531        0.00349443        0.00000810
     108         -0.643891        2.000000        0.00393508        0.00237839        0.00000753
     109         -0.643862        2.000000        0.00570975        0.00362490        0.00001625
     110         -0.643478        2.000000        0.00000452        0.00002417        0.00000054
     111         -0.643325        2.000000        0.00301509        0.00193987        0.00000511
     112         -0.642934        2.000000        0.00032950        0.00018495        0.00000036
     113         -0.642899        2.000000        0.00007303        0.00003423        0.00000022
     114         -0.642460        2.000000        0.00003254        0.00008853        0.00000177
     115         -0.642175        2.000000        0.00007424        0.00008959        0.00000045
     116         -0.642120        2.000000        0.00036157        0.00011628        0.00000446
     117         -0.641851        2.000000        0.00138548        0.00058080        0.00000334
     118         -0.641683        2.000000        0.00039943        0.00015063        0.00000788
     119         -0.641305        2.000000        0.00272832        0.00114263        0.00000736
     120         -0.641072        2.000000        0.00032004        0.00013367        0.00000224
     121         -0.640960        2.000000        0.00141928        0.00063205        0.00000444
     122         -0.640793        2.000000        0.00000835        0.00004083        0.00000090
     123         -0.640578        2.000000        0.00354748        0.00117418        0.00002334
     124         -0.640464        2.000000        0.00050028        0.00015295        0.00000330
     125         -0.640169        2.000000        0.00060615        0.00051837        0.00000156
     126         -0.639736        2.000000        0.00108872        0.00054741        0.00000245
     127         -0.639499        2.000000        0.00027264        0.00007278        0.00000151
     128         -0.639154        2.000000        0.00025976        0.00010495        0.00000112
     129         -0.639060        2.000000        0.00013344        0.00006329        0.00000043
     130         -0.638976        2.000000        0.00125006        0.00042836        0.00000453
     131         -0.638593        2.000000        0.00016059        0.00014622        0.00000056
     132         -0.638261        2.000000        0.00001832        0.00002988        0.00000007
     133         -0.638059        2.000000        0.00073394        0.00027267        0.00000330
     134         -0.637912        2.000000        0.00024095        0.00017498        0.00000128
     135         -0.637762        2.000000        0.00001156        0.00003028        0.00000025
     136         -0.637584        2.000000        0.00005863        0.00005347        0.00000022
     137         -0.636804        2.000000        0.00000441        0.00000235        0.00000006
     138         -0.636640        2.000000        0.00000566        0.00001998        0.00000021
     139         -0.636429        2.000000        0.00000362        0.00001997        0.00000039
     140         -0.635515        2.000000        0.00019040        0.00010120        0.00000038
     141         -0.634989        2.000000        0.00002668        0.00004129        0.00000025
     142         -0.634462        2.000000        0.00000217        0.00000133        0.00000006
     143         -0.634132        2.000000        0.00000784        0.00005160        0.00000070
     144         -0.633763        2.000000        0.00002120        0.00001810        0.00000005
     145         -0.633531        2.000000        0.00008984        0.00004916        0.00000061
     146         -0.632585        2.000000        0.00003300        0.00001274        0.00000041
     147         -0.632333        2.000000        0.00004022        0.00004502        0.00000018
     148         -0.632031        2.000000        0.00000470        0.00000273        0.00000001
     149         -0.631841        2.000000        0.00002477        0.00002808        0.00000010
     150         -0.631318        2.000000        0.00001042        0.00009887        0.00000285
     151         -0.630640        2.000000        0.00024882        0.00012252        0.00000143
     152         -0.630519        2.000000        0.00028737        0.00040097        0.00000176
     153         -0.630490        2.000000        0.00017448        0.00018705        0.00000049
     154         -0.629959        2.000000        0.00008336        0.00010942        0.00000045
     155         -0.629452        2.000000        0.00033500        0.00035894        0.00000121
     156         -0.629210        2.000000        0.00107314        0.00116550        0.00000413
     157         -0.628856        2.000000        0.00004841        0.00006444        0.00000026
     158         -0.628516        2.000000        0.00396980        0.00571608        0.00002601
     159         -0.628511        2.000000        0.00037922        0.00073893        0.00000435
     160         -0.628382        2.000000        0.00174393        0.00274565        0.00001303
     161         -0.628242        2.000000        0.00000913        0.00003886        0.00000081
     162         -0.628026        2.000000        0.00024545        0.00027708        0.00000114
     163         -0.627712        2.000000        0.00025552        0.00010644        0.00000200
     164         -0.627438        2.000000        0.00207996        0.00233550        0.00000824
     165         -0.627281        2.000000        0.00793916        0.01221198        0.00005803
     166         -0.626983        2.000000        0.00025626        0.00035461        0.00000165
     167         -0.626804        2.000000        0.00001595        0.00000849        0.00000013
     168         -0.626588        2.000000        0.00001754        0.00001109        0.00000036
     169         -0.626019        2.000000        0.00000067        0.00000029        0.00000001
     170         -0.625843        2.000000        0.00024896        0.00032996        0.00000103
     171         -0.625019        2.000000        0.00000166        0.00000732        0.00000010
     172         -0.624831        2.000000        0.00000387        0.00001126        0.00000048
     173         -0.624166        2.000000        0.00004315        0.00001708        0.00000070
     174         -0.623906        2.000000        0.00770485        0.00339028        0.00008795
     175         -0.623799        2.000000        0.00000300        0.00000115        0.00000006
     176         -0.623716        2.000000        0.00104951        0.00042641        0.00001227
     177         -0.623382        2.000000        0.00025696        0.00011289        0.00000367
     178         -0.623067        2.000000        0.00000014        0.00000110        0.00000003
     179         -0.622801        2.000000        0.00002203        0.00002359        0.00000166
     180         -0.622617        2.000000        0.00006588        0.00002838        0.00000114
     181         -0.622499        2.000000        0.00001261        0.00002606        0.00000119
     182         -0.621672        2.000000        0.00854003        0.00345548        0.00015781
     183         -0.621151        2.000000        0.00039041        0.00045103        0.00000267
     184         -0.620781        2.000000        0.00573961        0.00258061        0.00006609
     185         -0.620579        2.000000        0.00000054        0.00000113        0.00000002
     186         -0.619930        2.000000        0.00020593        0.00009122        0.00000198
     187         -0.618694        2.000000        0.00002056        0.00004912        0.00000201
     188         -0.618461        2.000000        0.00051627        0.00023331        0.00000691
     189         -0.618211        2.000000        0.00000565        0.00000475        0.00000016
     190         -0.617957        2.000000        0.00000831        0.00000738        0.00000003
     191         -0.617770        2.000000        0.00076774        0.00033901        0.00001170
     192         -0.617636        2.000000        0.00013263        0.00005460        0.00000287
     193         -0.617200        2.000000        0.00018317        0.00007850        0.00000396
     194         -0.616810        2.000000        0.00000003        0.00000010        0.00000001
     195         -0.615618        2.000000        0.00000161        0.00000175        0.00000001
     196         -0.615377        2.000000        0.00025047        0.00011460        0.00000522
     197         -0.615228        2.000000        0.00000386        0.00000338        0.00000003
     198         -0.614941        2.000000        0.00000301        0.00000138        0.00000005
     199         -0.613862        2.000000        0.00001178        0.00000522        0.00000028
     200         -0.613167        2.000000        0.00000461        0.00000208        0.00000012
     201         -0.612937        2.000000        0.00000307        0.00000241        0.00000002
     202         -0.612465        2.000000        0.00001419        0.00000709        0.00000019
     203         -0.611371        2.000000        0.00001268        0.00000675        0.00000049
     204         -0.611273        2.000000        0.00000046        0.00000100        0.00000006
     205         -0.610903        2.000000        0.00000390        0.00000764        0.00000004
     206         -0.609912        2.000000        0.00024114        0.00019225        0.00000209
     207         -0.609442        2.000000        0.00000082        0.00000195        0.00000006
     208         -0.609149        2.000000        0.00003943        0.00002281        0.00000051
     209         -0.608882        2.000000        0.00000038        0.00000041        0.00000000
     210         -0.608562        2.000000        0.00000003        0.00000002        0.00000000
     211         -0.608012        2.000000        0.00000082        0.00000195        0.00000014
     212         -0.607014        2.000000        0.00000199        0.00000427        0.00000003
     213         -0.606300        2.000000        0.00000499        0.00000266        0.00000015
     214         -0.605948        2.000000        0.00000014        0.00000019        0.00000002
     215         -0.605403        2.000000        0.00000039        0.00000043        0.00000003
     216         -0.604664        2.000000        0.00000066        0.00000404        0.00000008
     217         -0.604080        2.000000        0.00000191        0.00000171        0.00000005
     218         -0.603538        2.000000        0.00000215        0.00000520        0.00000007
     219         -0.603145        2.000000        0.00000271        0.00000401        0.00000002
     220         -0.602213        2.000000        0.00000032        0.00000019        0.00000002
     221         -0.601871        2.000000        0.00000285        0.00001520        0.00000038
     222         -0.600521        2.000000        0.00001902        0.00004438        0.00000034
     223         -0.599848        2.000000        0.00000061        0.00000215        0.00000002
     224         -0.598111        2.000000        0.00000404        0.00000965        0.00000007
     225         -0.597286        2.000000        0.00000525        0.00001269        0.00000008
     226         -0.597121        2.000000        0.00000298        0.00000820        0.00000006
     227         -0.595585        2.000000        0.00000000        0.00000001        0.00000000
     228         -0.591103        2.000000        0.00000650        0.00004036        0.00000055
     229         -0.582585        2.000000        0.00000000        0.00000000        0.00000000
     230         -0.576283        2.000000        0.00000000        0.00000000        0.00000000
     231         -0.258156        2.000000        0.00000000        0.00000000        0.00000000
     232         -0.253473        2.000000        0.00000328        0.00005887        0.00000008
     233         -0.246233        2.000000        0.00000025        0.00000152        0.00000002
     234         -0.244651        2.000000        0.00000117        0.00000765        0.00000008
     235         -0.243092        2.000000        0.00000019        0.00000079        0.00000001
     236         -0.242544        2.000000        0.00000000        0.00000000        0.00000000
     237         -0.241048        2.000000        0.00000154        0.00000757        0.00000009
     238         -0.240546        2.000000        0.00005368        0.00014727        0.00000344
     239         -0.237982        2.000000        0.00002357        0.00006519        0.00000154
     240         -0.237798        2.000000        0.00000001        0.00000003        0.00000000
     241         -0.236566        2.000000        0.00000046        0.00000214        0.00000002
     242         -0.235920        2.000000        0.00000082        0.00000273        0.00000005
     243         -0.233145        2.000000        0.00000000        0.00000000        0.00000000
     244         -0.232785        2.000000        0.00008980        0.00030423        0.00000501
     245         -0.232224        2.000000        0.00050124        0.00322330        0.00002696
     246         -0.232174        2.000000        0.00000003        0.00000019        0.00000000
     247         -0.232015        2.000000        0.00000007        0.00000045        0.00000000
     248         -0.230744        2.000000        0.00000269        0.00001143        0.00000016
     249         -0.230697        2.000000        0.00114548        0.00482803        0.00006748
     250         -0.229959        2.000000        0.00000120        0.00000388        0.00000007
     251         -0.229741        2.000000        0.00515733        0.01652197        0.00030187
     252         -0.228898        2.000000        0.00099045        0.00321680        0.00005742
     253         -0.227939        2.000000        0.00035250        0.00120787        0.00002048
     254         -0.227542        2.000000        0.00000019        0.00000174        0.00000001
     255         -0.227010        2.000000        0.00037015        0.00121728        0.00002204
     256         -0.226860        2.000000        0.00000006        0.00000017        0.00000000
     257         -0.226780        2.000000        0.00126168        0.00399766        0.00007401
     258         -0.226656        2.000000        0.00002978        0.00019298        0.00000105
     259         -0.226503        2.000000        0.00000000        0.00000001        0.00000000
     260         -0.226036        2.000000        0.00015305        0.00052621        0.00000875
     261         -0.225667        2.000000        0.00000001        0.00000003        0.00000000
     262         -0.225511        2.000000        0.00000168        0.00000531        0.00000010
     263         -0.224716        2.000000        0.00070675        0.00270990        0.00004045
     264         -0.224218        2.000000        0.00059897        0.00247688        0.00003328
     265         -0.223677        2.000000        0.00000010        0.00000033        0.00000000
     266         -0.223438        2.000000        0.00002408        0.00012873        0.00000087
     267         -0.223292        2.000000        0.00000093        0.00000260        0.00000002
     268         -0.223025        2.000000        0.00019708        0.00127571        0.00000790
     269         -0.222436        2.000000        0.00011144        0.00030694        0.00000679
     270         -0.222159        2.000000        0.00000000        0.00000001        0.00000000
     271         -0.221905        2.000000        0.00065804        0.00187478        0.00004133
     272         -0.221185        2.000000        0.00000028        0.00000087        0.00000002
     273         -0.220659        2.000000        0.00001272        0.00009057        0.00000059
     274         -0.219665        2.000000        0.00056819        0.00167422        0.00003480
     275         -0.219630        2.000000        0.00002663        0.00007793        0.00000163
     276         -0.218916        2.000000        0.03624287        0.12249254        0.00203297
     277         -0.218551        2.000000        0.00263579        0.01007533        0.00014020
     278         -0.218398        2.000000        0.00241605        0.00905918        0.00012952
     279         -0.218139        2.000000        0.00001320        0.00004287        0.00000075
     280         -0.217698        2.000000        0.00597822        0.01933975        0.00034032
     281         -0.217580        2.000000        0.00000698        0.00002123        0.00000044
     282         -0.217435        2.000000        0.00466937        0.01402921        0.00027535
     283         -0.216483        2.000000        0.00544607        0.01841007        0.00030572
     284         -0.216363        2.000000        0.00009352        0.00032650        0.00000524
     285         -0.216254        2.000000        0.02967169        0.10067713        0.00166385
     286         -0.215958        2.000000        0.00000571        0.00001637        0.00000034
     287         -0.215645        2.000000        0.00000220        0.00001194        0.00000011
     288         -0.215217        2.000000        0.00026483        0.00088109        0.00001524
     289         -0.214936        2.000000        0.00001284        0.00010411        0.00000091
     290         -0.214221        2.000000        0.00239370        0.00705749        0.00015945
     291         -0.213816        2.000000        0.00442091        0.01477173        0.00030824
     292         -0.213592        2.000000        0.00000467        0.00001269        0.00000031
     293         -0.213468        2.000000        0.00078953        0.00216553        0.00005395
     294         -0.213241        2.000000        0.00649001        0.01898830        0.00040509
     295         -0.213184        2.000000        0.00001212        0.00003371        0.00000083
     296         -0.212817        2.000000        0.00000082        0.00000421        0.00000005
     297         -0.212583        2.000000        0.00221587        0.00733547        0.00012445
     298         -0.212273        2.000000        0.00001916        0.00005372        0.00000120
     299         -0.211896        2.000000        0.01468343        0.04581965        0.00098278
     300         -0.211391        2.000000        0.00001840        0.00011565        0.00000095
     301         -0.211339        2.000000        0.00010224        0.00050515        0.00000538
     302         -0.211269        2.000000        0.00005763        0.00033006        0.00000393
     303         -0.211046        2.000000        0.00002557        0.00008133        0.00000212
     304         -0.210412        2.000000        0.00119229        0.00390993        0.00008677
     305         -0.210309        2.000000        0.00055562        0.00161806        0.00003773
     306         -0.210188        2.000000        0.00005553        0.00030910        0.00000413
     307         -0.210166        2.000000        0.00003316        0.00011231        0.00000189