# Projected DOS for list 161 of 3 atoms, at iteration step i = 0, E(Fermi) =     0.101540 a.u.
#     MO Eigenvalue [a.u.]      Occupation                 s                 p                 d
       1         -0.708367        2.000000        0.00000007        0.00000005        0.00000000
       2         -0.696979        2.000000        0.00008328        0.00002096        0.00000054
       3         -0.695301        2.000000        0.00206118        0.00086854        0.00000625
       4         -0.694902        2.000000        0.00000000        0.00000000        0.00000000
       5         -0.690081        2.000000        0.00000000        0.00000000        0.00000000
       6         -0.686805        2.000000        0.00023645        0.00009490        0.00000154
       7         -0.686571        2.000000        0.00033154        0.00007292        0.00000108
       8         -0.685003        2.000000        0.00414639        0.00347815        0.00004848
       9         -0.684036        2.000000        0.00013390        0.00009844        0.00000835
      10         -0.683920        2.000000        0.00000000        0.00000000        0.00000000
      11         -0.681735        2.000000        0.00004656        0.00008903        0.00000289
      12         -0.679408        2.000000        0.00030694        0.00006135        0.00000212
      13         -0.678932        2.000000        0.00000000        0.00000000        0.00000000
      14         -0.678381        2.000000        0.00001040        0.00001332        0.00000063
      15         -0.677963        2.000000        0.01915729        0.00437201        0.00010238
      16         -0.677540        2.000000        0.00108384        0.00025183        0.00000213
      17         -0.677381        2.000000        0.00000000        0.00000000        0.00000000
      18         -0.677246        2.000000        0.00015778        0.00111466        0.00002289
      19         -0.675827        2.000000        0.02055565        0.00372130        0.00005742
      20         -0.675724        2.000000        0.00000000        0.00000000        0.00000000
      21         -0.674932        2.000000        0.00000000        0.00000000        0.00000000
      22         -0.674380        2.000000        0.00026636        0.00114489        0.00002464
      23         -0.673393        2.000000        0.00027065        0.00006067        0.00000039
      24         -0.672924        2.000000        0.00000000        0.00000000        0.00000000
      25         -0.672289        2.000000        0.00004771        0.00028364        0.00000430
      26         -0.672227        2.000000        0.00008866        0.00003131        0.00000044
      27         -0.671275        2.000000        0.00000003        0.00000001        0.00000000
      28         -0.670770        2.000000        0.02526506        0.00480632        0.00008226
      29         -0.670400        2.000000        0.00104695        0.00046335        0.00000743
      30         -0.669922        2.000000        0.00290290        0.00081233        0.00001461
      31         -0.669606        2.000000        0.00000132        0.00000092        0.00000000
      32         -0.668947        2.000000        0.00244300        0.00114978        0.00000720
      33         -0.668931        2.000000        0.00145503        0.00067608        0.00000424
      34         -0.668431        2.000000        0.00164119        0.00042254        0.00000251
      35         -0.668008        2.000000        0.00004681        0.00006566        0.00000034
      36         -0.667083        2.000000        0.00002838        0.00005989        0.00000173
      37         -0.666996        2.000000        0.00000065        0.00000014        0.00000000
      38         -0.666939        2.000000        0.00866864        0.00260318        0.00005883
      39         -0.666646        2.000000        0.00031018        0.00008705        0.00000167
      40         -0.666363        2.000000        0.00008546        0.00004228        0.00000016
      41         -0.666281        2.000000        0.00000076        0.00000007        0.00000000
      42         -0.666129        2.000000        0.00271578        0.00023819        0.00000847
      43         -0.665867        2.000000        0.00188617        0.00048851        0.00000511
      44         -0.664404        2.000000        0.00000321        0.00000040        0.00000001
      45         -0.664061        2.000000        0.00115475        0.00018746        0.00000245
      46         -0.663948        2.000000        0.00001522        0.00000272        0.00000003
      47         -0.663550        2.000000        0.00019059        0.00011414        0.00000055
      48         -0.662943        2.000000        0.00000001        0.00000001        0.00000000
      49         -0.662627        2.000000        0.00084023        0.00156993        0.00001683
      50         -0.661965        2.000000        0.00003385        0.00020007        0.00000205
      51         -0.661528        2.000000        0.00000000        0.00000015        0.00000000
      52         -0.660900        2.000000        0.00000025        0.00000010        0.00000000
      53         -0.660166        2.000000        0.00188310        0.00056420        0.00001106
      54         -0.659683        2.000000        0.00000000        0.00000001        0.00000000
      55         -0.658835        2.000000        0.00059692        0.00032940        0.00000223
      56         -0.658814        2.000000        0.00000292        0.00000116        0.00000001
      57         -0.658691        2.000000        0.00000069        0.00000020        0.00000000
      58         -0.658084        2.000000        0.00128880        0.00048531        0.00000161
      59         -0.658073        2.000000        0.00053890        0.00018553        0.00000063
      60         -0.657975        2.000000        0.00214474        0.00037442        0.00000578
      61         -0.657678        2.000000        0.01564241        0.00265638        0.00003563
      62         -0.657592        2.000000        0.00014102        0.00006346        0.00000071
      63         -0.657226        2.000000        0.00000262        0.00000045        0.00000001
      64         -0.657087        2.000000        0.02985712        0.00511516        0.00007041
      65         -0.656742        2.000000        0.00041339        0.00011877        0.00000083
      66         -0.656449        2.000000        0.01320376        0.00247699        0.00003039
      67         -0.656215        2.000000        0.01971968        0.00381350        0.00004488
      68         -0.655700        2.000000        0.00439896        0.00086791        0.00000980
      69         -0.655174        2.000000        0.00000299        0.00000057        0.00000001
      70         -0.654827        2.000000        0.00633423        0.00122746        0.00001784
      71         -0.654660        2.000000        0.00002369        0.00000474        0.00000006
      72         -0.654406        2.000000        0.00381819        0.00115818        0.00001079
      73         -0.654250        2.000000        0.02463361        0.00461682        0.00006098
      74         -0.653619        2.000000        0.00000048        0.00000027        0.00000000
      75         -0.653105        2.000000        0.00015999        0.00004482        0.00000026
      76         -0.652904        2.000000        0.00003365        0.00001039        0.00000004
      77         -0.652612        2.000000        0.03536173        0.00821208        0.00006597
      78         -0.652411        2.000000        0.08276784        0.01784557        0.00016788
      79         -0.652213        2.000000        0.00036292        0.00009219        0.00000063
      80         -0.652083        2.000000        0.00098455        0.00024456        0.00000169
      81         -0.651807        2.000000        0.00004214        0.00021789        0.00000030
      82         -0.651706        2.000000        0.00003542        0.00004271        0.00000013
      83         -0.651237        2.000000        0.00368549        0.00141099        0.00000878
      84         -0.651053        2.000000        0.00746537        0.00237872        0.00001619
      85         -0.650411        2.000000        0.00569922        0.00137619        0.00001111
      86         -0.650326        2.000000        0.00944059        0.00223670        0.00001874
      87         -0.650219        2.000000        0.00253599        0.00111459        0.00000316
      88         -0.650130        2.000000        0.00615993        0.00145209        0.00001236
      89         -0.649849        2.000000        0.00414763        0.00096869        0.00000921
      90         -0.649510        2.000000        0.03694302        0.00906285        0.00007389
      91         -0.648737        2.000000        0.00501706        0.00135040        0.00000932
      92         -0.648608        2.000000        0.00140650        0.00040792        0.00000255
      93         -0.648509        2.000000        0.00427312        0.00194549        0.00000633
      94         -0.648091        2.000000        0.00069551        0.00020956        0.00000143
      95         -0.647956        2.000000        0.00000005        0.00000004        0.00000000
      96         -0.647875        2.000000        0.01175092        0.00341419        0.00002175
      97         -0.647628        2.000000        0.19707562        0.05645837        0.00036721
      98         -0.647248        2.000000        0.00001047        0.00000387        0.00000003
      99         -0.646997        2.000000        0.00000649        0.00000311        0.00000001
     100         -0.646893        2.000000        0.00000692        0.00000217        0.00000001
     101         -0.646794        2.000000        0.00045564        0.00012333        0.00000072
     102         -0.645843        2.000000        0.00000526        0.00000575        0.00000002
     103         -0.645519        2.000000        0.00207370        0.00075816        0.00000344
     104         -0.645232        2.000000        0.00090398        0.00031763        0.00000150
     105         -0.644964        2.000000        0.07904706        0.02617222        0.00013970
     106         -0.644451        2.000000        0.00404789        0.00125823        0.00000642
     107         -0.644170        2.000000        0.01183635        0.00421298        0.00001966
     108         -0.643891        2.000000        0.00004367        0.00005235        0.00000020
     109         -0.643862        2.000000        0.00220166        0.00080919        0.00000409
     110         -0.643478        2.000000        0.00705308        0.00247067        0.00001246
     111         -0.643325        2.000000        0.00076672        0.00027122        0.00000128
     112         -0.642934        2.000000        0.00006846        0.00002901        0.00000011
     113         -0.642899        2.000000        0.00627713        0.00236098        0.00001098
     114         -0.642460        2.000000        0.00002416        0.00006976        0.00000017
     115         -0.642175        2.000000        0.00005177        0.00002103        0.00000005
     116         -0.642120        2.000000        0.00184022        0.00102499        0.00000426
     117         -0.641851        2.000000        0.00027306        0.00010067        0.00000059
     118         -0.641683        2.000000        0.00979811        0.00342438        0.00001430
     119         -0.641305        2.000000        0.00013249        0.00008009        0.00000016
     120         -0.641072        2.000000        0.00364710        0.00106485        0.00000557
     121         -0.640960        2.000000        0.00007214        0.00001570        0.00000017
     122         -0.640793        2.000000        0.00026644        0.00007537        0.00000045
     123         -0.640578        2.000000        0.00056467        0.00028099        0.00000048
     124         -0.640464        2.000000        0.00050718        0.00019009        0.00000060
     125         -0.640169        2.000000        0.00002578        0.00000758        0.00000004
     126         -0.639736        2.000000        0.00013599        0.00004963        0.00000013
     127         -0.639499        2.000000        0.00008608        0.00003670        0.00000009
     128         -0.639154        2.000000        0.00106606        0.00057757        0.00000246
     129         -0.639060        2.000000        0.00147485        0.00067047        0.00000280
     130         -0.638976        2.000000        0.00556724        0.00229246        0.00000948
     131         -0.638593        2.000000        0.00000218        0.00000880        0.00000001
     132         -0.638261        2.000000        0.00005757        0.00002374        0.00000009
     133         -0.638059        2.000000        0.00002782        0.00001939        0.00000003
     134         -0.637912        2.000000        0.00027811        0.00009563        0.00000043
     135         -0.637762        2.000000        0.00022429        0.00011662        0.00000043
     136         -0.637584        2.000000        0.00000413        0.00000180        0.00000001
     137         -0.636804        2.000000        0.00089202        0.00029814        0.00000241
     138         -0.636640        2.000000        0.00000341        0.00000292        0.00000002
     139         -0.636429        2.000000        0.00001231        0.00000650        0.00000005
     140         -0.635515        2.000000        0.00002844        0.00001006        0.00000008
     141         -0.634989        2.000000        0.00000155        0.00000056        0.00000000
     142         -0.634462        2.000000        0.00001393        0.00000440        0.00000007
     143         -0.634132        2.000000        0.00001457        0.00000758        0.00000018
     144         -0.633763        2.000000        0.00000070        0.00000071        0.00000000
     145         -0.633531        2.000000        0.00009984        0.00006617        0.00000022
     146         -0.632585        2.000000        0.00017693        0.00007933        0.00000297
     147         -0.632333        2.000000        0.00000104        0.00000034        0.00000001
     148         -0.632031        2.000000        0.00000031        0.00000027        0.00000001
     149         -0.631841        2.000000        0.00000011        0.00000029        0.00000000
     150         -0.631318        2.000000        0.00002220        0.00002295        0.00000007
     151         -0.630640        2.000000        0.00000593        0.00000807        0.00000009
     152         -0.630519        2.000000        0.00000041        0.00000219        0.00000001
     153         -0.630490        2.000000        0.00000185        0.00000155        0.00000001
     154         -0.629959        2.000000        0.00000000        0.00000008        0.00000000
     155         -0.629452        2.000000        0.00000010        0.00000029        0.00000000
     156         -0.629210        2.000000        0.00002183        0.00001346        0.00000022
     157         -0.628856        2.000000        0.00000001        0.00000001        0.00000000
     158         -0.628516        2.000000        0.00000625        0.00000435        0.00000003
     159         -0.628511        2.000000        0.00000301        0.00000350        0.00000007
     160         -0.628382        2.000000        0.00000032        0.00000176        0.00000002
     161         -0.628242        2.000000        0.00000037        0.00000207        0.00000002
     162         -0.628026        2.000000        0.00000034        0.00000156        0.00000001
     163         -0.627712        2.000000        0.00000473        0.00002137        0.00000006
     164         -0.627438        2.000000        0.00000117        0.00000224        0.00000007
     165         -0.627281        2.000000        0.00000193        0.00000070        0.00000002
     166         -0.626983        2.000000        0.00000240        0.00000328        0.00000002
     167         -0.626804        2.000000        0.00000054        0.00000079        0.00000000
     168         -0.626588        2.000000        0.00000660        0.00002204        0.00000003
     169         -0.626019        2.000000        0.00000000        0.00000002        0.00000000
     170         -0.625843        2.000000        0.00002477        0.00003550        0.00000011
     171         -0.625019        2.000000        0.00001422        0.00005120        0.00000037
     172         -0.624831        2.000000        0.00000091        0.00000213        0.00000002
     173         -0.624166        2.000000        0.00000022        0.00000099        0.00000001
     174         -0.623906        2.000000        0.00000004        0.00000064        0.00000000
     175         -0.623799        2.000000        0.00000004        0.00000010        0.00000000
     176         -0.623716        2.000000        0.00000671        0.00002814        0.00000006
     177         -0.623382        2.000000        0.00000080        0.00000198        0.00000001
     178         -0.623067        2.000000        0.00000008        0.00000030        0.00000001
     179         -0.622801        2.000000        0.00000031        0.00000082        0.00000003
     180         -0.622617        2.000000        0.00000035        0.00000065        0.00000001
     181         -0.622499        2.000000        0.00000715        0.00000967        0.00000004
     182         -0.621672        2.000000        0.00000948        0.00000444        0.00000003
     183         -0.621151        2.000000        0.00003430        0.00001672        0.00000020
     184         -0.620781        2.000000        0.00000940        0.00000410        0.00000005
     185         -0.620579        2.000000        0.00000080        0.00000208        0.00000000
     186         -0.619930        2.000000        0.00000380        0.00000775        0.00000005
     187         -0.618694        2.000000        0.00013258        0.00009289        0.00000086
     188         -0.618461        2.000000        0.00000020        0.00000017        0.00000001
     189         -0.618211        2.000000        0.00000099        0.00000111        0.00000001
     190         -0.617957        2.000000        0.00000297        0.00000480        0.00000025
     191         -0.617770        2.000000        0.00000034        0.00000083        0.00000003
     192         -0.617636        2.000000        0.00000238        0.00000340        0.00000010
     193         -0.617200        2.000000        0.00000113        0.00000231        0.00000004
     194         -0.616810        2.000000        0.00000000        0.00000001        0.00000000
     195         -0.615618        2.000000        0.00000018        0.00000036        0.00000000
     196         -0.615377        2.000000        0.00001761        0.00002608        0.00000006
     197         -0.615228        2.000000        0.00000001        0.00000003        0.00000000
     198         -0.614941        2.000000        0.00031420        0.00030901        0.00000054
     199         -0.613862        2.000000        0.00000003        0.00000016        0.00000000
     200         -0.613167        2.000000        0.00000002        0.00000013        0.00000000
     201         -0.612937        2.000000        0.00001448        0.00002371        0.00000004
     202         -0.612465        2.000000        0.00000016        0.00000032        0.00000000
     203         -0.611371        2.000000        0.00000055        0.00000045        0.00000000
     204         -0.611273        2.000000        0.00000011        0.00000009        0.00000000
     205         -0.610903        2.000000        0.00000029        0.00000039        0.00000000
     206         -0.609912        2.000000        0.00000002        0.00000006        0.00000000
     207         -0.609442        2.000000        0.00000892        0.00001389        0.00000010
     208         -0.609149        2.000000        0.00000108        0.00000141        0.00000001
     209         -0.608882        2.000000        0.00000001        0.00000007        0.00000000
     210         -0.608562        2.000000        0.00000000        0.00000000        0.00000000
     211         -0.608012        2.000000        0.00000061        0.00000169        0.00000001
     212         -0.607014        2.000000        0.00000057        0.00000082        0.00000000
     213         -0.606300        2.000000        0.00000143        0.00000330        0.00000001
     214         -0.605948        2.000000        0.00000043        0.00000110        0.00000006
     215         -0.605403        2.000000        0.00000008        0.00000031        0.00000002
     216         -0.604664        2.000000        0.00000016        0.00000021        0.00000000
     217         -0.604080        2.000000        0.00000002        0.00000006        0.00000000
     218         -0.603538        2.000000        0.00000005        0.00000016        0.00000000
     219         -0.603145        2.000000        0.00000002        0.00000007        0.00000000
     220         -0.602213        2.000000        0.00000006        0.00000015        0.00000000
     221         -0.601871        2.000000        0.00000000        0.00000000        0.00000000
     222         -0.600521        2.000000        0.00000001        0.00000007        0.00000000
     223         -0.599848        2.000000        0.00000001        0.00000002        0.00000000
     224         -0.598111        2.000000        0.00000000        0.00000000        0.00000000
     225         -0.597286        2.000000        0.00000000        0.00000000        0.00000000
     226         -0.597121        2.000000        0.00000000        0.00000000        0.00000000
     227         -0.595585        2.000000        0.00000000        0.00000000        0.00000000
     228         -0.591103        2.000000        0.00000000        0.00000000        0.00000000
     229         -0.582585        2.000000        0.00000000        0.00000000        0.00000000
     230         -0.576283        2.000000        0.00000000        0.00000000        0.00000000
     231         -0.258156        2.000000        0.00000001        0.00000002        0.00000000
     232         -0.253473        2.000000        0.00004891        0.00019559        0.00000178
     233         -0.246233        2.000000        0.00000460        0.00003784        0.00000129
     234         -0.244651        2.000000        0.00001157        0.00016168        0.00000357
     235         -0.243092        2.000000        0.00451037        0.01834438        0.00022648
     236         -0.242544        2.000000        0.00000000        0.00000002        0.00000000
     237         -0.241048        2.000000        0.00043288        0.00156326        0.00001529
     238         -0.240546        2.000000        0.00006513        0.00022581        0.00000500
     239         -0.237982        2.000000        0.00029170        0.00097724        0.00002169
     240         -0.237798        2.000000        0.00000001        0.00000021        0.00000000
     241         -0.236566        2.000000        0.00000133        0.00000926        0.00000028
     242         -0.235920        2.000000        0.00000352        0.00001270        0.00000013
     243         -0.233145        2.000000        0.00000002        0.00000007        0.00000000
     244         -0.232785        2.000000        0.00106686        0.00256520        0.00006902
     245         -0.232224        2.000000        0.01103055        0.04305007        0.00054596
     246         -0.232174        2.000000        0.00000065        0.00000248        0.00000003
     247         -0.232015        2.000000        0.00000177        0.00000655        0.00000009
     248         -0.230744        2.000000        0.00001600        0.00006199        0.00000080
     249         -0.230697        2.000000        0.00682242        0.02626681        0.00033796
     250         -0.229959        2.000000        0.00000083        0.00000300        0.00000004
     251         -0.229741        2.000000        0.00080232        0.00242886        0.00003944
     252         -0.228898        2.000000        0.00018650        0.00069221        0.00001499
     253         -0.227939        2.000000        0.00018381        0.00053326        0.00001248
     254         -0.227542        2.000000        0.00020539        0.00052697        0.00001442
     255         -0.227010        2.000000        0.00015338        0.00051899        0.00001221
     256         -0.226860        2.000000        0.00000005        0.00000012        0.00000000
     257         -0.226780        2.000000        0.00068700        0.00207127        0.00005084
     258         -0.226656        2.000000        0.00001452        0.00005116        0.00000115
     259         -0.226503        2.000000        0.00000000        0.00000000        0.00000000
     260         -0.226036        2.000000        0.00003091        0.00017598        0.00000168
     261         -0.225667        2.000000        0.00000001        0.00000002        0.00000000
     262         -0.225511        2.000000        0.00000122        0.00000351        0.00000008
     263         -0.224716        2.000000        0.00003031        0.00053391        0.00000210
     264         -0.224218        2.000000        0.00002590        0.00014704        0.00000398
     265         -0.223677        2.000000        0.00000017        0.00000061        0.00000001
     266         -0.223438        2.000000        0.00001154        0.00009290        0.00000073
     267         -0.223292        2.000000        0.00000028        0.00000276        0.00000001
     268         -0.223025        2.000000        0.00001234        0.00011688        0.00000286
     269         -0.222436        2.000000        0.00000506        0.00002249        0.00000029
     270         -0.222159        2.000000        0.00000000        0.00000001        0.00000000
     271         -0.221905        2.000000        0.00003203        0.00012374        0.00000180
     272         -0.221185        2.000000        0.00000001        0.00000004        0.00000000
     273         -0.220659        2.000000        0.00000746        0.00002106        0.00000045
     274         -0.219665        2.000000        0.00008671        0.00025879        0.00000456
     275         -0.219630        2.000000        0.00000229        0.00000695        0.00000012
     276         -0.218916        2.000000        0.00321179        0.00950187        0.00016573
     277         -0.218551        2.000000        0.00057256        0.00165346        0.00002938
     278         -0.218398        2.000000        0.00047833        0.00138393        0.00002454
     279         -0.218139        2.000000        0.00000236        0.00000661        0.00000014
     280         -0.217698        2.000000        0.00038336        0.00113624        0.00002059
     281         -0.217580        2.000000        0.00000681        0.00001798        0.00000041
     282         -0.217435        2.000000        0.00001605        0.00006480        0.00000075
     283         -0.216483        2.000000        0.00075583        0.00216196        0.00004016
     284         -0.216363        2.000000        0.00002184        0.00006204        0.00000122
     285         -0.216254        2.000000        0.00621608        0.01757979        0.00034193
     286         -0.215958        2.000000        0.00000001        0.00000016        0.00000000
     287         -0.215645        2.000000        0.00000220        0.00000677        0.00000010
     288         -0.215217        2.000000        0.00010185        0.00027125        0.00000841
     289         -0.214936        2.000000        0.00000310        0.00001618        0.00000024
     290         -0.214221        2.000000        0.00118396        0.00335933        0.00007668
     291         -0.213816        2.000000        0.00126455        0.00345684        0.00007399
     292         -0.213592        2.000000        0.00002080        0.00005715        0.00000137
     293         -0.213468        2.000000        0.00704161        0.01943822        0.00045574
     294         -0.213241        2.000000        0.00055883        0.00152178        0.00003217
     295         -0.213184        2.000000        0.00006252        0.00017352        0.00000390
     296         -0.212817        2.000000        0.00000225        0.00000648        0.00000012
     297         -0.212583        2.000000        0.00111017        0.00293141        0.00008337
     298         -0.212273        2.000000        0.00001634        0.00004401        0.00000108
     299         -0.211896        2.000000        0.00094870        0.00261697        0.00005397
     300         -0.211391        2.000000        0.00008091        0.00022991        0.00000653
     301         -0.211339        2.000000        0.00061346        0.00162049        0.00004649
     302         -0.211269        2.000000        0.00076647        0.00208332        0.00005328
     303         -0.211046        2.000000        0.00005733        0.00016855        0.00000328
     304         -0.210412        2.000000        0.00079034        0.00216660        0.00004649
     305         -0.210309        2.000000        0.00047570        0.00128082        0.00002967
     306         -0.210188        2.000000        0.00008064        0.00021653        0.00000656
     307         -0.210166        2.000000        0.00013875        0.00036908        0.00000954