# Projected DOS for list 197 of 3 atoms, at iteration step i = 0, E(Fermi) =     0.101540 a.u.
#     MO Eigenvalue [a.u.]      Occupation                 s                 p                 d
       1         -0.708367        2.000000        0.00000000        0.00000000        0.00000000
       2         -0.696979        2.000000        0.00000009        0.00000004        0.00000000
       3         -0.695301        2.000000        0.00000006        0.00000010        0.00000000
       4         -0.694902        2.000000        0.00000000        0.00000000        0.00000000
       5         -0.690081        2.000000        0.00000000        0.00000000        0.00000000
       6         -0.686805        2.000000        0.00000011        0.00000062        0.00000001
       7         -0.686571        2.000000        0.00000006        0.00000006        0.00000000
       8         -0.685003        2.000000        0.00000342        0.00000232        0.00000003
       9         -0.684036        2.000000        0.00000703        0.00000685        0.00000022
      10         -0.683920        2.000000        0.00000000        0.00000000        0.00000000
      11         -0.681735        2.000000        0.00000024        0.00000116        0.00000002
      12         -0.679408        2.000000        0.00000005        0.00000004        0.00000000
      13         -0.678932        2.000000        0.00000001        0.00000001        0.00000000
      14         -0.678381        2.000000        0.00000185        0.00000036        0.00000000
      15         -0.677963        2.000000        0.00000036        0.00000254        0.00000005
      16         -0.677540        2.000000        0.00000003        0.00000058        0.00000002
      17         -0.677381        2.000000        0.00000000        0.00000000        0.00000000
      18         -0.677246        2.000000        0.00000004        0.00000005        0.00000000
      19         -0.675827        2.000000        0.00000194        0.00000150        0.00000001
      20         -0.675724        2.000000        0.00000000        0.00000000        0.00000000
      21         -0.674932        2.000000        0.00000000        0.00000000        0.00000000
      22         -0.674380        2.000000        0.00000233        0.00000020        0.00000001
      23         -0.673393        2.000000        0.00000111        0.00000089        0.00000000
      24         -0.672924        2.000000        0.00000000        0.00000000        0.00000000
      25         -0.672289        2.000000        0.00000017        0.00000046        0.00000001
      26         -0.672227        2.000000        0.00027722        0.00013973        0.00000364
      27         -0.671275        2.000000        0.00000000        0.00000000        0.00000000
      28         -0.670770        2.000000        0.00001246        0.00001197        0.00000006
      29         -0.670400        2.000000        0.00000125        0.00000216        0.00000001
      30         -0.669922        2.000000        0.00000639        0.00000661        0.00000004
      31         -0.669606        2.000000        0.00000126        0.00000302        0.00000006
      32         -0.668947        2.000000        0.00002455        0.00000581        0.00000011
      33         -0.668931        2.000000        0.00001059        0.00000299        0.00000004
      34         -0.668431        2.000000        0.00003284        0.00000195        0.00000007
      35         -0.668008        2.000000        0.00000342        0.00001353        0.00000009
      36         -0.667083        2.000000        0.00000021        0.00000556        0.00000002
      37         -0.666996        2.000000        0.00000001        0.00000002        0.00000000
      38         -0.666939        2.000000        0.00000017        0.00000029        0.00000000
      39         -0.666646        2.000000        0.00000214        0.00000596        0.00000026
      40         -0.666363        2.000000        0.00000476        0.00000323        0.00000009
      41         -0.666281        2.000000        0.00000010        0.00000011        0.00000000
      42         -0.666129        2.000000        0.00002381        0.00001657        0.00000029
      43         -0.665867        2.000000        0.00001187        0.00000148        0.00000006
      44         -0.664404        2.000000        0.00000022        0.00000033        0.00000000
      45         -0.664061        2.000000        0.00000704        0.00000647        0.00000005
      46         -0.663948        2.000000        0.00004151        0.00001843        0.00000034
      47         -0.663550        2.000000        0.00008556        0.00001413        0.00000027
      48         -0.662943        2.000000        0.00000019        0.00000012        0.00000000
      49         -0.662627        2.000000        0.00000077        0.00000157        0.00000000
      50         -0.661965        2.000000        0.00002680        0.00000748        0.00000008
      51         -0.661528        2.000000        0.00000087        0.00000074        0.00000001
      52         -0.660900        2.000000        0.00000048        0.00000028        0.00000001
      53         -0.660166        2.000000        0.00002873        0.00000417        0.00000009
      54         -0.659683        2.000000        0.00000052        0.00000015        0.00000000
      55         -0.658835        2.000000        0.00017884        0.00003163        0.00000041
      56         -0.658814        2.000000        0.00000006        0.00000012        0.00000000
      57         -0.658691        2.000000        0.00000003        0.00000033        0.00000001
      58         -0.658084        2.000000        0.00000687        0.00003282        0.00000035
      59         -0.658073        2.000000        0.00000903        0.00001377        0.00000013
      60         -0.657975        2.000000        0.00125294        0.00017013        0.00000220
      61         -0.657678        2.000000        0.00023201        0.00003697        0.00000033
      62         -0.657592        2.000000        0.00002989        0.00002239        0.00000021
      63         -0.657226        2.000000        0.00000014        0.00000013        0.00000000
      64         -0.657087        2.000000        0.00067248        0.00009662        0.00000284
      65         -0.656742        2.000000        0.00239522        0.00076668        0.00001599
      66         -0.656449        2.000000        0.00078318        0.00006959        0.00000169
      67         -0.656215        2.000000        0.00008341        0.00006475        0.00000042
      68         -0.655700        2.000000        0.00239680        0.00058846        0.00000998
      69         -0.655174        2.000000        0.00000520        0.00000076        0.00000001
      70         -0.654827        2.000000        0.00001927        0.00003622        0.00000022
      71         -0.654660        2.000000        0.00000014        0.00000004        0.00000000
      72         -0.654406        2.000000        0.00001840        0.00007138        0.00000020
      73         -0.654250        2.000000        0.00005626        0.00002905        0.00000025
      74         -0.653619        2.000000        0.00029099        0.00004136        0.00000077
      75         -0.653105        2.000000        0.00557433        0.00069315        0.00001332
      76         -0.652904        2.000000        0.00243352        0.00028309        0.00000577
      77         -0.652612        2.000000        0.00282465        0.00028997        0.00000557
      78         -0.652411        2.000000        0.00025808        0.00002894        0.00000050
      79         -0.652213        2.000000        0.00057995        0.00008950        0.00000155
      80         -0.652083        2.000000        0.01126781        0.00146364        0.00002732
      81         -0.651807        2.000000        0.01891233        0.00209683        0.00004070
      82         -0.651706        2.000000        0.00305241        0.00032033        0.00000644
      83         -0.651237        2.000000        0.00098887        0.00030858        0.00000398
      84         -0.651053        2.000000        0.00071549        0.00031583        0.00000397
      85         -0.650411        2.000000        0.00323589        0.00038300        0.00000947
      86         -0.650326        2.000000        0.00029632        0.00004485        0.00000183
      87         -0.650219        2.000000        0.00594484        0.00083029        0.00000971
      88         -0.650130        2.000000        0.01948944        0.00247659        0.00003851
      89         -0.649849        2.000000        0.02798696        0.00338414        0.00006463
      90         -0.649510        2.000000        0.00221965        0.00054172        0.00000378
      91         -0.648737        2.000000        0.00045645        0.00008502        0.00000054
      92         -0.648608        2.000000        0.00459120        0.00051960        0.00000672
      93         -0.648509        2.000000        0.00446557        0.00090267        0.00001711
      94         -0.648091        2.000000        0.00187333        0.00021984        0.00000252
      95         -0.647956        2.000000        0.00000003        0.00000018        0.00000000
      96         -0.647875        2.000000        0.00065921        0.00011278        0.00000424
      97         -0.647628        2.000000        0.00013153        0.00025860        0.00000238
      98         -0.647248        2.000000        0.00003402        0.00022363        0.00000429
      99         -0.646997        2.000000        0.00016911        0.00001850        0.00000035
     100         -0.646893        2.000000        0.00017553        0.00001924        0.00000030
     101         -0.646794        2.000000        0.00156859        0.00181370        0.00002691
     102         -0.645843        2.000000        0.00011749        0.00001860        0.00000037
     103         -0.645519        2.000000        0.00518772        0.00292082        0.00002894
     104         -0.645232        2.000000        0.00032734        0.00076818        0.00000732
     105         -0.644964        2.000000        0.00121551        0.00047074        0.00000552
     106         -0.644451        2.000000        0.00057628        0.00126852        0.00001044
     107         -0.644170        2.000000        0.00108609        0.00074741        0.00000790
     108         -0.643891        2.000000        0.00030623        0.00012146        0.00000215
     109         -0.643862        2.000000        0.00430137        0.00094981        0.00000485
     110         -0.643478        2.000000        0.00006582        0.00002966        0.00000027
     111         -0.643325        2.000000        0.00282882        0.00079407        0.00000538
     112         -0.642934        2.000000        0.00038529        0.00037428        0.00000435
     113         -0.642899        2.000000        0.00012777        0.00003613        0.00000022
     114         -0.642460        2.000000        0.00000483        0.00000750        0.00000007
     115         -0.642175        2.000000        0.00238418        0.00028651        0.00000591
     116         -0.642120        2.000000        0.00259474        0.00095112        0.00000345
     117         -0.641851        2.000000        0.02311469        0.00441324        0.00002295
     118         -0.641683        2.000000        0.00011547        0.00143356        0.00003224
     119         -0.641305        2.000000        0.00323970        0.00075840        0.00001387
     120         -0.641072        2.000000        0.00059780        0.00141568        0.00002743
     121         -0.640960        2.000000        0.00105139        0.00011956        0.00000368
     122         -0.640793        2.000000        0.00057621        0.00058845        0.00000775
     123         -0.640578        2.000000        0.00002994        0.00028719        0.00000982
     124         -0.640464        2.000000        0.00025571        0.00066406        0.00002544
     125         -0.640169        2.000000        0.00161552        0.00017958        0.00000516
     126         -0.639736        2.000000        0.00212765        0.00050784        0.00000165
     127         -0.639499        2.000000        0.00327038        0.00113814        0.00000355
     128         -0.639154        2.000000        0.00463890        0.00178935        0.00000802
     129         -0.639060        2.000000        0.00003305        0.00001176        0.00000004
     130         -0.638976        2.000000        0.00328693        0.00163420        0.00000837
     131         -0.638593        2.000000        0.00016221        0.00012377        0.00000026
     132         -0.638261        2.000000        0.00002274        0.00003075        0.00000032
     133         -0.638059        2.000000        0.00123913        0.00075111        0.00000603
     134         -0.637912        2.000000        0.00041201        0.00035309        0.00000364
     135         -0.637762        2.000000        0.00021586        0.00010611        0.00000071
     136         -0.637584        2.000000        0.00036328        0.00008556        0.00000056
     137         -0.636804        2.000000        0.00032742        0.00014667        0.00000034
     138         -0.636640        2.000000        0.00001658        0.00002269        0.00000098
     139         -0.636429        2.000000        0.00001811        0.00010764        0.00000233
     140         -0.635515        2.000000        0.00070804        0.00037842        0.00000184
     141         -0.634989        2.000000        0.00008077        0.00010040        0.00000161
     142         -0.634462        2.000000        0.00101305        0.00018161        0.00000515
     143         -0.634132        2.000000        0.02656144        0.00472324        0.00006012
     144         -0.633763        2.000000        0.00240171        0.00054047        0.00000306
     145         -0.633531        2.000000        0.00002460        0.00000439        0.00000029
     146         -0.632585        2.000000        0.01605977        0.00587251        0.00001933
     147         -0.632333        2.000000        0.00025289        0.00015704        0.00000087
     148         -0.632031        2.000000        0.00095373        0.00034580        0.00000137
     149         -0.631841        2.000000        0.00290921        0.00088423        0.00000450
     150         -0.631318        2.000000        0.08893612        0.02633765        0.00018665
     151         -0.630640        2.000000        0.01008266        0.00259176        0.00003991
     152         -0.630519        2.000000        0.00568816        0.00236402        0.00001583
     153         -0.630490        2.000000        0.00367060        0.00137033        0.00000856
     154         -0.629959        2.000000        0.00036154        0.00014051        0.00000079
     155         -0.629452        2.000000        0.00005460        0.00010583        0.00000153
     156         -0.629210        2.000000        0.00002860        0.00008622        0.00000043
     157         -0.628856        2.000000        0.00000046        0.00000053        0.00000001
     158         -0.628516        2.000000        0.00002307        0.00005092        0.00000084
     159         -0.628511        2.000000        0.00017329        0.00017229        0.00000974
     160         -0.628382        2.000000        0.00081482        0.00023865        0.00000589
     161         -0.628242        2.000000        0.00007267        0.00009368        0.00000714
     162         -0.628026        2.000000        0.00082549        0.00022330        0.00000478
     163         -0.627712        2.000000        0.01427528        0.00368931        0.00006682
     164         -0.627438        2.000000        0.00001178        0.00026309        0.00001826
     165         -0.627281        2.000000        0.00019035        0.00010138        0.00000345
     166         -0.626983        2.000000        0.00032916        0.00017957        0.00000264
     167         -0.626804        2.000000        0.00000715        0.00001733        0.00000101
     168         -0.626588        2.000000        0.00416152        0.00153321        0.00003739
     169         -0.626019        2.000000        0.00000131        0.00000126        0.00000004
     170         -0.625843        2.000000        0.00155336        0.00126239        0.00004182
     171         -0.625019        2.000000        0.00042155        0.00317121        0.00005572
     172         -0.624831        2.000000        0.00000965        0.00006009        0.00000131
     173         -0.624166        2.000000        0.00002727        0.00015541        0.00000460
     174         -0.623906        2.000000        0.00001192        0.00007728        0.00000407
     175         -0.623799        2.000000        0.00001401        0.00002301        0.00000012
     176         -0.623716        2.000000        0.00654139        0.00943061        0.00007524
     177         -0.623382        2.000000        0.00008506        0.00013301        0.00000399
     178         -0.623067        2.000000        0.00001233        0.00000819        0.00000002
     179         -0.622801        2.000000        0.00038748        0.00029257        0.00000559
     180         -0.622617        2.000000        0.00009268        0.00010954        0.00000071
     181         -0.622499        2.000000        0.00268330        0.00175303        0.00000807
     182         -0.621672        2.000000        0.00000597        0.00015805        0.00001000
     183         -0.621151        2.000000        0.00005161        0.00002759        0.00000041
     184         -0.620781        2.000000        0.00134624        0.00059679        0.00000159
     185         -0.620579        2.000000        0.00160675        0.00053088        0.00000586
     186         -0.619930        2.000000        0.01323391        0.00430341        0.00007208
     187         -0.618694        2.000000        0.00000903        0.00000397        0.00000006
     188         -0.618461        2.000000        0.00002237        0.00000782        0.00000039
     189         -0.618211        2.000000        0.00030719        0.00015229        0.00000039
     190         -0.617957        2.000000        0.00825194        0.00373841        0.00001238
     191         -0.617770        2.000000        0.00296517        0.00135302        0.00000241
     192         -0.617636        2.000000        0.01116892        0.00497847        0.00000934
     193         -0.617200        2.000000        0.01118805        0.00423383        0.00001542
     194         -0.616810        2.000000        0.00003308        0.00002995        0.00000166
     195         -0.615618        2.000000        0.00192630        0.00079118        0.00000164
     196         -0.615377        2.000000        0.12853396        0.04663575        0.00018088
     197         -0.615228        2.000000        0.00001085        0.00000431        0.00000013
     198         -0.614941        2.000000        0.00203718        0.00080859        0.00000235
     199         -0.613862        2.000000        0.00192823        0.00062960        0.00000404
     200         -0.613167        2.000000        0.00177399        0.00049642        0.00000619
     201         -0.612937        2.000000        0.00005571        0.00001961        0.00000009
     202         -0.612465        2.000000        0.00167746        0.00048529        0.00000513
     203         -0.611371        2.000000        0.00035928        0.00009938        0.00000126
     204         -0.611273        2.000000        0.00004140        0.00001278        0.00000009
     205         -0.610903        2.000000        0.00010217        0.00003180        0.00000095
     206         -0.609912        2.000000        0.00010517        0.00003766        0.00000029
     207         -0.609442        2.000000        0.00005258        0.00001889        0.00000014
     208         -0.609149        2.000000        0.00222573        0.00064135        0.00000842
     209         -0.608882        2.000000        0.00091745        0.00027480        0.00000345
     210         -0.608562        2.000000        0.00000997        0.00000301        0.00000003
     211         -0.608012        2.000000        0.04361171        0.01286900        0.00017885
     212         -0.607014        2.000000        0.01804530        0.00540111        0.00006837
     213         -0.606300        2.000000        0.09134296        0.02723731        0.00032683
     214         -0.605948        2.000000        0.00332900        0.00105998        0.00002372
     215         -0.605403        2.000000        0.00091400        0.00027796        0.00000674
     216         -0.604664        2.000000        0.01202189        0.00382219        0.00004960
     217         -0.604080        2.000000        0.00185983        0.00054189        0.00000745
     218         -0.603538        2.000000        0.00397389        0.00110056        0.00003272
     219         -0.603145        2.000000        0.00165392        0.00046401        0.00001022
     220         -0.602213        2.000000        0.00536093        0.00149479        0.00003840
     221         -0.601871        2.000000        0.00000135        0.00000074        0.00000003
     222         -0.600521        2.000000        0.00001557        0.00001190        0.00000060
     223         -0.599848        2.000000        0.00061870        0.00017361        0.00000486
     224         -0.598111        2.000000        0.00005735        0.00001698        0.00000058
     225         -0.597286        2.000000        0.00009609        0.00002847        0.00000097
     226         -0.597121        2.000000        0.00003052        0.00000936        0.00000030
     227         -0.595585        2.000000        0.00000013        0.00000004        0.00000000
     228         -0.591103        2.000000        0.00000197        0.00000059        0.00000001
     229         -0.582585        2.000000        0.00000001        0.00000000        0.00000000
     230         -0.576283        2.000000        0.00005410        0.00001854        0.00000102
     231         -0.258156        2.000000        0.00000000        0.00000000        0.00000000
     232         -0.253473        2.000000        0.00000002        0.00000009        0.00000000
     233         -0.246233        2.000000        0.00000000        0.00000001        0.00000000
     234         -0.244651        2.000000        0.00000000        0.00000000        0.00000000
     235         -0.243092        2.000000        0.00000123        0.00000325        0.00000007
     236         -0.242544        2.000000        0.00000000        0.00000000        0.00000000
     237         -0.241048        2.000000        0.00000004        0.00000013        0.00000000
     238         -0.240546        2.000000        0.00000099        0.00000295        0.00000007
     239         -0.237982        2.000000        0.00000608        0.00001738        0.00000043
     240         -0.237798        2.000000        0.00000000        0.00000000        0.00000000
     241         -0.236566        2.000000        0.00000000        0.00000001        0.00000000
     242         -0.235920        2.000000        0.00000001        0.00000003        0.00000000
     243         -0.233145        2.000000        0.00000000        0.00000000        0.00000000
     244         -0.232785        2.000000        0.00000009        0.00000029        0.00000001
     245         -0.232224        2.000000        0.00000032        0.00000099        0.00000003
     246         -0.232174        2.000000        0.00000000        0.00000000        0.00000000
     247         -0.232015        2.000000        0.00000000        0.00000000        0.00000000
     248         -0.230744        2.000000        0.00000000        0.00000001        0.00000000
     249         -0.230697        2.000000        0.00000178        0.00000485        0.00000009
     250         -0.229959        2.000000        0.00000000        0.00000000        0.00000000
     251         -0.229741        2.000000        0.00000590        0.00001820        0.00000020
     252         -0.228898        2.000000        0.00000169        0.00000522        0.00000007
     253         -0.227939        2.000000        0.00000574        0.00001402        0.00000027
     254         -0.227542        2.000000        0.00000212        0.00000517        0.00000012
     255         -0.227010        2.000000        0.00000014        0.00000130        0.00000001
     256         -0.226860        2.000000        0.00000000        0.00000000        0.00000000
     257         -0.226780        2.000000        0.00000223        0.00000568        0.00000021
     258         -0.226656        2.000000        0.00000022        0.00000075        0.00000002
     259         -0.226503        2.000000        0.00000001        0.00000001        0.00000000
     260         -0.226036        2.000000        0.00000006        0.00000020        0.00000000
     261         -0.225667        2.000000        0.00000002        0.00000004        0.00000000
     262         -0.225511        2.000000        0.00000482        0.00001063        0.00000029
     263         -0.224716        2.000000        0.00000096        0.00000298        0.00000005
     264         -0.224218        2.000000        0.00000004        0.00000033        0.00000000
     265         -0.223677        2.000000        0.00000000        0.00000000        0.00000000
     266         -0.223438        2.000000        0.00000061        0.00000172        0.00000003
     267         -0.223292        2.000000        0.00000038        0.00000153        0.00000003
     268         -0.223025        2.000000        0.00000029        0.00000099        0.00000002
     269         -0.222436        2.000000        0.00000014        0.00000053        0.00000001
     270         -0.222159        2.000000        0.00000000        0.00000000        0.00000000
     271         -0.221905        2.000000        0.00000074        0.00000311        0.00000006
     272         -0.221185        2.000000        0.00000000        0.00000000        0.00000000
     273         -0.220659        2.000000        0.00000156        0.00000561        0.00000011
     274         -0.219665        2.000000        0.00000062        0.00000259        0.00000005
     275         -0.219630        2.000000        0.00000001        0.00000007        0.00000000
     276         -0.218916        2.000000        0.00000587        0.00002128        0.00000029
     277         -0.218551        2.000000        0.00000040        0.00000156        0.00000003
     278         -0.218398        2.000000        0.00000111        0.00000364        0.00000009
     279         -0.218139        2.000000        0.00000291        0.00000683        0.00000017
     280         -0.217698        2.000000        0.00000081        0.00000871        0.00000030
     281         -0.217580        2.000000        0.00000188        0.00000504        0.00000012
     282         -0.217435        2.000000        0.00000379        0.00001073        0.00000021
     283         -0.216483        2.000000        0.00000717        0.00002844        0.00000042
     284         -0.216363        2.000000        0.00000032        0.00000105        0.00000002
     285         -0.216254        2.000000        0.00000566        0.00001979        0.00000034
     286         -0.215958        2.000000        0.00000001        0.00000005        0.00000000
     287         -0.215645        2.000000        0.00000003        0.00000011        0.00000000
     288         -0.215217        2.000000        0.00028480        0.00077570        0.00001677
     289         -0.214936        2.000000        0.00002287        0.00006186        0.00000142
     290         -0.214221        2.000000        0.00000651        0.00003386        0.00000094
     291         -0.213816        2.000000        0.00001568        0.00003287        0.00000117
     292         -0.213592        2.000000        0.00000033        0.00000105        0.00000002
     293         -0.213468        2.000000        0.00003685        0.00016794        0.00000295
     294         -0.213241        2.000000        0.00066223        0.00230686        0.00004253
     295         -0.213184        2.000000        0.00000029        0.00000124        0.00000003
     296         -0.212817        2.000000        0.00000008        0.00000062        0.00000001
     297         -0.212583        2.000000        0.00027160        0.00071406        0.00001709
     298         -0.212273        2.000000        0.00000222        0.00000605        0.00000013
     299         -0.211896        2.000000        0.00018977        0.00058215        0.00001101
     300         -0.211391        2.000000        0.00047551        0.00123740        0.00002730
     301         -0.211339        2.000000        0.00167091        0.00433772        0.00009544
     302         -0.211269        2.000000        0.00008017        0.00025681        0.00000481
     303         -0.211046        2.000000        0.00004892        0.00012859        0.00000284
     304         -0.210412        2.000000        0.00000528        0.00003427        0.00000054
     305         -0.210309        2.000000        0.00000726        0.00002121        0.00000036
     306         -0.210188        2.000000        0.00000237        0.00001108        0.00000020
     307         -0.210166        2.000000        0.00001497        0.00004202        0.00000064