 DBCSR| CPU Multiplication driver                                           XSMM
 DBCSR| Multrec recursion limit                                              512
 DBCSR| Multiplication stack size                                           1000
 DBCSR| Maximum elements for images                                    UNLIMITED
 DBCSR| Multiplicative factor virtual images                                   1
 DBCSR| Use multiplication densification                                       T
 DBCSR| Multiplication size stacks                                             3
 DBCSR| Use memory pool for CPU allocation                                     F
 DBCSR| Number of 3D layers                                               SINGLE
 DBCSR| Use MPI memory allocation                                              F
 DBCSR| Use RMA algorithm                                                      F
 DBCSR| Use Communication thread                                               T
 DBCSR| Communication thread load                                             87
 DBCSR| MPI: My node id                                                        0
 DBCSR| MPI: Number of nodes                                                  64
 DBCSR| OMP: Current number of threads                                         1
 DBCSR| OMP: Max number of threads                                             1
 DBCSR| Split modifier for TAS multiplication algorithm                  1.0E+00


  **** **** ******  **  PROGRAM STARTED AT               2023-11-26 18:56:25.347
 ***** ** ***  *** **   PROGRAM STARTED ON                                 cu054
 **    ****   ******    PROGRAM STARTED BY                                 jxzhu
 ***** **    ** ** **   PROGRAM PROCESS ID                                 60666
  **** **  *******  **  PROGRAM STARTED IN /public/home/jxzhu/tmp_calc/af2075565
                                           805657d94fa4669dad6f4b174b0a4fb/calc/
                                           002100.000/pbc

 CP2K| version string:                                       CP2K version 2022.1
 CP2K| source code revision number:                                  git:2caeb6f
 CP2K| cp2kflags: omp libint fftw3 libxc elpa parallel mpi3 scalapack cosma xsmm
 CP2K|             plumed2 spglib mkl sirius libvori libbqb
 CP2K| is freely available from                            https://www.cp2k.org/
 CP2K| Program compiled at                           Mon Jul 3 17:37:06 CST 2023
 CP2K| Program compiled on                                                 mu003
 CP2K| Program compiled for                                                local
 CP2K| Data directory path                             /public/home/jxzhu/basis/
 CP2K| Input file name                                                 input.inp
 
 GLOBAL| Force Environment number                                              1
 GLOBAL| Basis set file name                                        BASIS_MOLOPT
 GLOBAL| Potential file name                                      GTH_POTENTIALS
 GLOBAL| MM Potential file name                                     MM_POTENTIAL
 GLOBAL| Coordinate file name                                          coord.xyz
 GLOBAL| Method name                                                        CP2K
 GLOBAL| Project name                                                       cp2k
 GLOBAL| Run type                                                   ENERGY_FORCE
 GLOBAL| FFT library                                                       FFTW3
 GLOBAL| Diagonalization library                                            ELPA
 GLOBAL| Minimum number of eigenvectors for ELPA usage                        16
 GLOBAL| Orthonormality check for eigenvectors                          DISABLED
 GLOBAL| Matrix multiplication library                                     COSMA
 GLOBAL| All-to-all communication in single precision                          F
 GLOBAL| FFTs using library dependent lengths                                  F
 GLOBAL| Grid backend                                                       AUTO
 GLOBAL| Global print level                                               MEDIUM
 GLOBAL| MPI I/O enabled                                                       T
 GLOBAL| Total number of message passing processes                            64
 GLOBAL| Number of threads for this process                                    1
 GLOBAL| This output is from process                                           0
 GLOBAL| Stack size for threads created by OpenMP (OMP_STACKSIZE)        default
 GLOBAL| CPU model name                 Intel(R) Xeon(R) Gold 6338 CPU @ 2.00GHz
 GLOBAL| CPUID                                                              1003

 MEMORY| system memory details [Kb]
 MEMORY|                        rank 0           min           max       average
 MEMORY| MemTotal            263619172     263619172     263619172     263619172
 MEMORY| MemFree             210635844     210635844     210637332     210635886
 MEMORY| Buffers                  3320          3320          3320          3320
 MEMORY| Cached                4131260       4131260       4131260       4131260
 MEMORY| Slab                  1793616       1793616       1793616       1793616
 MEMORY| SReclaimable           242692        242692        242692        242692
 MEMORY| MemLikelyFree       215013116     215013116     215014604     215013158


 *** Fundamental physical constants (SI units) ***

 *** Literature: B. J. Mohr and B. N. Taylor,
 ***             CODATA recommended values of the fundamental physical
 ***             constants: 2006, Web Version 5.1
 ***             http://physics.nist.gov/constants

 Speed of light in vacuum [m/s]                             2.99792458000000E+08
 Magnetic constant or permeability of vacuum [N/A**2]       1.25663706143592E-06
 Electric constant or permittivity of vacuum [F/m]          8.85418781762039E-12
 Planck constant (h) [J*s]                                  6.62606896000000E-34
 Planck constant (h-bar) [J*s]                              1.05457162825177E-34
 Elementary charge [C]                                      1.60217648700000E-19
 Electron mass [kg]                                         9.10938215000000E-31
 Electron g factor [ ]                                     -2.00231930436220E+00
 Proton mass [kg]                                           1.67262163700000E-27
 Fine-structure constant                                    7.29735253760000E-03
 Rydberg constant [1/m]                                     1.09737315685270E+07
 Avogadro constant [1/mol]                                  6.02214179000000E+23
 Boltzmann constant [J/K]                                   1.38065040000000E-23
 Atomic mass unit [kg]                                      1.66053878200000E-27
 Bohr radius [m]                                            5.29177208590000E-11

 *** Conversion factors ***

 [u] -> [a.u.]                                              1.82288848426455E+03
 [Angstrom] -> [Bohr] = [a.u.]                              1.88972613288564E+00
 [a.u.] = [Bohr] -> [Angstrom]                              5.29177208590000E-01
 [a.u.] -> [s]                                              2.41888432650478E-17
 [a.u.] -> [fs]                                             2.41888432650478E-02
 [a.u.] -> [J]                                              4.35974393937059E-18
 [a.u.] -> [N]                                              8.23872205491840E-08
 [a.u.] -> [K]                                              3.15774647902944E+05
 [a.u.] -> [kJ/mol]                                         2.62549961709828E+03
 [a.u.] -> [kcal/mol]                                       6.27509468713739E+02
 [a.u.] -> [Pa]                                             2.94210107994716E+13
 [a.u.] -> [bar]                                            2.94210107994716E+08
 [a.u.] -> [atm]                                            2.90362800883016E+08
 [a.u.] -> [eV]                                             2.72113838565563E+01
 [a.u.] -> [Hz]                                             6.57968392072181E+15
 [a.u.] -> [1/cm] (wave numbers)                            2.19474631370540E+05
 [a.u./Bohr**2] -> [1/cm]                                   5.14048714338585E+03
 

 CELL_TOP| Volume [angstrom^3]:                                     10221.806009
 CELL_TOP| Vector a [angstrom    16.869     0.000     0.000   |a| =    16.869000
 CELL_TOP| Vector b [angstrom    -8.434    14.609     0.000   |b| =    16.869015
 CELL_TOP| Vector c [angstrom     0.000     0.000    41.478   |c| =    41.478000
 CELL_TOP| Angle (b,c), alpha [degree]:                                90.000000
 CELL_TOP| Angle (a,c), beta  [degree]:                                90.000000
 CELL_TOP| Angle (a,b), gamma [degree]:                               119.999970
 CELL_TOP| Numerically orthorhombic:                                          NO
 
 GENERATE|  Preliminary Number of Bonds generated:                             0
 GENERATE|  Achieved consistency in connectivity generation.

 CELL| Volume [angstrom^3]:                                         10221.806009
 CELL| Vector a [angstrom]:      16.869     0.000     0.000   |a| =    16.869000
 CELL| Vector b [angstrom]:      -8.434    14.609     0.000   |b| =    16.869015
 CELL| Vector c [angstrom]:       0.000     0.000    41.478   |c| =    41.478000
 CELL| Angle (b,c), alpha [degree]:                                    90.000000
 CELL| Angle (a,c), beta  [degree]:                                    90.000000
 CELL| Angle (a,b), gamma [degree]:                                   119.999970
 CELL| Numerically orthorhombic:                                              NO

 CELL_REF| Volume [angstrom^3]:                                     10221.806009
 CELL_REF| Vector a [angstrom    16.869     0.000     0.000   |a| =    16.869000
 CELL_REF| Vector b [angstrom    -8.434    14.609     0.000   |b| =    16.869015
 CELL_REF| Vector c [angstrom     0.000     0.000    41.478   |c| =    41.478000
 CELL_REF| Angle (b,c), alpha [degree]:                                90.000000
 CELL_REF| Angle (a,c), beta  [degree]:                                90.000000
 CELL_REF| Angle (a,b), gamma [degree]:                               119.999970
 CELL_REF| Numerically orthorhombic:                                          NO

 *******************************************************************************
 *******************************************************************************
 **                                                                           **
 **     #####                         ##              ##                      **
 **    ##   ##            ##          ##              ##                      **
 **   ##     ##                       ##            ######                    **
 **   ##     ##  ##   ##  ##   #####  ##  ##   ####   ##    #####    #####    **
 **   ##     ##  ##   ##  ##  ##      ## ##   ##      ##   ##   ##  ##   ##   **
 **   ##  ## ##  ##   ##  ##  ##      ####     ###    ##   ######   ######    **
 **    ##  ###   ##   ##  ##  ##      ## ##      ##   ##   ##       ##        **
 **     #######   #####   ##   #####  ##  ##  ####    ##    #####   ##        **
 **           ##                                                    ##        **
 **                                                                           **
 **                                                ... make the atoms dance   **
 **                                                                           **
 **            Copyright (C) by CP2K developers group (2000-2022)             **
 **                      J. Chem. Phys. 152, 194103 (2020)                    **
 **                                                                           **
 *******************************************************************************

 DFT| Spin restricted Kohn-Sham (RKS) calculation                            RKS
 DFT| Multiplicity                                                             1
 DFT| Number of spin states                                                    1
 DFT| Charge                                                                   0
 DFT| Self-interaction correction (SIC)                                       NO
 DFT| Cutoffs: density                                              1.000000E-10
 DFT|          gradient                                             1.000000E-10
 DFT|          tau                                                  1.000000E-10
 DFT|          cutoff_smoothing_range                               0.000000E+00
 DFT| XC density smoothing                                                  NONE
 DFT| XC derivatives                                                          PW

 FUNCTIONAL| PBE:
 FUNCTIONAL| J.P.Perdew, K.Burke, M.Ernzerhof, Phys. Rev. Letter, vol. 77, n 18,
 FUNCTIONAL|  pp. 3865-3868, (1996){spin unpolarized}                           

 vdW POTENTIAL|                                                   Pair Potential
 vdW POTENTIAL|          DFT-D3 (Version 3.1)
 vdW POTENTIAL|          Potential Form: S. Grimme et al, JCP 132: 154104 (2010)
 vdW POTENTIAL|          Zero Damping
 vdW POTENTIAL|          Cutoff Radius [Bohr]:                             20.00
 vdW POTENTIAL|          s6 Scaling Factor:                               1.0000
 vdW POTENTIAL|          sr6 Scaling Factor:                              1.2170
 vdW POTENTIAL|          s8 Scaling Factor:                               0.7220
 vdW POTENTIAL|          Cutoff for CN calculation:                   0.1000E-05

 QS| Method:                                                                 GPW
 QS| Density plane wave grid type                        NON-SPHERICAL FULLSPACE
 QS| Number of grid levels:                                                    4
 QS| Density cutoff [a.u.]:                                                200.0
 QS| Multi grid cutoff [a.u.]: 1) grid level                               200.0
 QS|                           2) grid level                                66.7
 QS|                           3) grid level                                22.2
 QS|                           4) grid level                                 7.4
 QS| Grid level progression factor:                                          3.0
 QS| Relative density cutoff [a.u.]:                                        20.0
 QS| Interaction thresholds: eps_pgf_orb:                                3.2E-07
 QS|                         eps_filter_matrix:                          0.0E+00
 QS|                         eps_core_charge:                            1.0E-15
 QS|                         eps_rho_gspace:                             1.0E-13
 QS|                         eps_rho_rspace:                             1.0E-13
 QS|                         eps_gvg_rspace:                             3.2E-07
 QS|                         eps_ppl:                                    1.0E-02
 QS|                         eps_ppnl:                                   3.2E-09


 ATOMIC KIND INFORMATION

  1. Atomic kind: O                                     Number of atoms:     230

     Orbital Basis Set                                        DZVP-MOLOPT-SR-GTH

       Number of orbital shell sets:                                           1
       Number of orbital shells:                                               5
       Number of primitive Cartesian functions:                                5
       Number of Cartesian basis functions:                                   14
       Number of spherical basis functions:                                   13
       Norm type:                                                              2

       Normalised Cartesian orbitals:

                        Set   Shell   Orbital            Exponent    Coefficient

                          1       1    2s               10.389228       0.396646
                                                         3.849621       0.208811
                                                         1.388401      -0.301641
                                                         0.496955      -0.274061
                                                         0.162492      -0.033677

                          1       2    3s               10.389228       0.303673
                                                         3.849621       0.240943
                                                         1.388401      -0.313066
                                                         0.496955      -0.043055
                                                         0.162492       0.213991

                          1       3    3px              10.389228      -1.530415
                                                         3.849621      -1.371928
                                                         1.388401      -0.761951
                                                         0.496955      -0.253695
                                                         0.162492      -0.035541
                          1       3    3py              10.389228      -1.530415
                                                         3.849621      -1.371928
                                                         1.388401      -0.761951
                                                         0.496955      -0.253695
                                                         0.162492      -0.035541
                          1       3    3pz              10.389228      -1.530415
                                                         3.849621      -1.371928
                                                         1.388401      -0.761951
                                                         0.496955      -0.253695
                                                         0.162492      -0.035541

                          1       4    4px              10.389228      -0.565392
                                                         3.849621      -0.038231
                                                         1.388401      -0.382373
                                                         0.496955       0.179070
                                                         0.162492       0.122714
                          1       4    4py              10.389228      -0.565392
                                                         3.849621      -0.038231
                                                         1.388401      -0.382373
                                                         0.496955       0.179070
                                                         0.162492       0.122714
                          1       4    4pz              10.389228      -0.565392
                                                         3.849621      -0.038231
                                                         1.388401      -0.382373
                                                         0.496955       0.179070
                                                         0.162492       0.122714

                          1       5    4dx2             10.389228       1.867377
                                                         3.849621       0.670994
                                                         1.388401       1.353441
                                                         0.496955       0.273538
                                                         0.162492       0.006620
                          1       5    4dxy             10.389228       3.234392
                                                         3.849621       1.162195
                                                         1.388401       2.344229
                                                         0.496955       0.473781
                                                         0.162492       0.011466
                          1       5    4dxz             10.389228       3.234392
                                                         3.849621       1.162195
                                                         1.388401       2.344229
                                                         0.496955       0.473781
                                                         0.162492       0.011466
                          1       5    4dy2             10.389228       1.867377
                                                         3.849621       0.670994
                                                         1.388401       1.353441
                                                         0.496955       0.273538
                                                         0.162492       0.006620
                          1       5    4dyz             10.389228       3.234392
                                                         3.849621       1.162195
                                                         1.388401       2.344229
                                                         0.496955       0.473781
                                                         0.162492       0.011466
                          1       5    4dz2             10.389228       1.867377
                                                         3.849621       0.670994
                                                         1.388401       1.353441
                                                         0.496955       0.273538
                                                         0.162492       0.006620

       Atomic covalent radius [Angstrom]:                                  0.730

       Atomic van der Waals radius [Angstrom]:                             1.520

     GTH Potential information for                                    GTH-PBE-q6

       Description:                       Goedecker-Teter-Hutter pseudopotential
                                           Goedecker et al., PRB 54, 1703 (1996)
                                          Hartwigsen et al., PRB 58, 3641 (1998)
                                                      Krack, TCA 114, 145 (2005)

       Gaussian exponent of the core charge distribution:               8.360253
       Electronic configuration (s p d ...):                               2   4

       Parameters of the local part of the GTH pseudopotential:

                          rloc        C1          C2          C3          C4
                        0.244554  -16.667215    2.487311

       Parameters of the non-local part of the GTH pseudopotential:

                   l      r(l)      h(i,j,l)

                   0    0.220956   18.337458
                   1    0.211332

  2. Atomic kind: H                                     Number of atoms:     460

     Orbital Basis Set                                        DZVP-MOLOPT-SR-GTH

       Number of orbital shell sets:                                           1
       Number of orbital shells:                                               3
       Number of primitive Cartesian functions:                                5
       Number of Cartesian basis functions:                                    5
       Number of spherical basis functions:                                    5
       Norm type:                                                              2

       Normalised Cartesian orbitals:

                        Set   Shell   Orbital            Exponent    Coefficient

                          1       1    2s               10.068468      -0.133023
                                                         2.680223      -0.177618
                                                         0.791502      -0.258419
                                                         0.239116      -0.107525
                                                         0.082193      -0.014019

                          1       2    3s               10.068468       0.344673
                                                         2.680223       1.819821
                                                         0.791502      -0.999069
                                                         0.239116       0.017430
                                                         0.082193       0.082660

                          1       3    3px              10.068468       0.155326
                                                         2.680223       0.367157
                                                         0.791502       0.311480
                                                         0.239116       0.080105
                                                         0.082193       0.033440
                          1       3    3py              10.068468       0.155326
                                                         2.680223       0.367157
                                                         0.791502       0.311480
                                                         0.239116       0.080105
                                                         0.082193       0.033440
                          1       3    3pz              10.068468       0.155326
                                                         2.680223       0.367157
                                                         0.791502       0.311480
                                                         0.239116       0.080105
                                                         0.082193       0.033440

       Atomic covalent radius [Angstrom]:                                  0.320

       Atomic van der Waals radius [Angstrom]:                             1.090

     GTH Potential information for                                    GTH-PBE-q1

       Description:                       Goedecker-Teter-Hutter pseudopotential
                                           Goedecker et al., PRB 54, 1703 (1996)
                                          Hartwigsen et al., PRB 58, 3641 (1998)
                                                      Krack, TCA 114, 145 (2005)

       Gaussian exponent of the core charge distribution:              12.500000
       Electronic configuration (s p d ...):                                   1

       Parameters of the local part of the GTH pseudopotential:

                          rloc        C1          C2          C3          C4
                        0.200000   -4.178900    0.724463

  3. Atomic kind: Pt                                    Number of atoms:     216

     Orbital Basis Set                      DZVP-A5-Q10-323-MOL-T1-DERIVED_SET-1

       Number of orbital shell sets:                                           1
       Number of orbital shells:                                               6
       Number of primitive Cartesian functions:                                5
       Number of Cartesian basis functions:                                   23
       Number of spherical basis functions:                                   20
       Norm type:                                                              2

       Normalised Cartesian orbitals:

                        Set   Shell   Orbital            Exponent    Coefficient

                          1       1    2s                2.521825       0.177473
                                                         1.453920      -0.063399
                                                         0.614053      -0.407089
                                                         0.232656       0.262254
                                                         0.074788       0.047371

                          1       2    3s                2.521825      -0.049056
                                                         1.453920       0.044904
                                                         0.614053      -0.009756
                                                         0.232656      -0.144709
                                                         0.074788       0.144085

                          1       3    3px               2.521825      -0.317572
                                                         1.453920       0.534826
                                                         0.614053      -0.489458
                                                         0.232656       0.245631
                                                         0.074788       0.018221
                          1       3    3py               2.521825      -0.317572
                                                         1.453920       0.534826
                                                         0.614053      -0.489458
                                                         0.232656       0.245631
                                                         0.074788       0.018221
                          1       3    3pz               2.521825      -0.317572
                                                         1.453920       0.534826
                                                         0.614053      -0.489458
                                                         0.232656       0.245631
                                                         0.074788       0.018221

                          1       4    4dx2              2.521825       3.008522
                                                         1.453920      -1.224251
                                                         0.614053       0.225691
                                                         0.232656       0.125144
                                                         0.074788      -0.015348
                          1       4    4dxy              2.521825       5.210912
                                                         1.453920      -2.120465
                                                         0.614053       0.390909
                                                         0.232656       0.216756
                                                         0.074788      -0.026584
                          1       4    4dxz              2.521825       5.210912
                                                         1.453920      -2.120465
                                                         0.614053       0.390909
                                                         0.232656       0.216756
                                                         0.074788      -0.026584
                          1       4    4dy2              2.521825       3.008522
                                                         1.453920      -1.224251
                                                         0.614053       0.225691
                                                         0.232656       0.125144
                                                         0.074788      -0.015348
                          1       4    4dyz              2.521825       5.210912
                                                         1.453920      -2.120465
                                                         0.614053       0.390909
                                                         0.232656       0.216756
                                                         0.074788      -0.026584
                          1       4    4dz2              2.521825       3.008522
                                                         1.453920      -1.224251
                                                         0.614053       0.225691
                                                         0.232656       0.125144
                                                         0.074788      -0.015348

                          1       5    5dx2              2.521825       0.698026
                                                         1.453920      -1.511486
                                                         0.614053      -0.335394
                                                         0.232656      -0.025564
                                                         0.074788      -0.002699
                          1       5    5dxy              2.521825       1.209017
                                                         1.453920      -2.617970
                                                         0.614053      -0.580920
                                                         0.232656      -0.044277
                                                         0.074788      -0.004674
                          1       5    5dxz              2.521825       1.209017
                                                         1.453920      -2.617970
                                                         0.614053      -0.580920
                                                         0.232656      -0.044277
                                                         0.074788      -0.004674
                          1       5    5dy2              2.521825       0.698026
                                                         1.453920      -1.511486
                                                         0.614053      -0.335394
                                                         0.232656      -0.025564
                                                         0.074788      -0.002699
                          1       5    5dyz              2.521825       1.209017
                                                         1.453920      -2.617970
                                                         0.614053      -0.580920
                                                         0.232656      -0.044277
                                                         0.074788      -0.004674
                          1       5    5dz2              2.521825       0.698026
                                                         1.453920      -1.511486
                                                         0.614053      -0.335394
                                                         0.232656      -0.025564
                                                         0.074788      -0.002699

                          1       6    6dx2              2.521825       0.831079
                                                         1.453920      -0.709226
                                                         0.614053      -0.137351
                                                         0.232656       0.068642
                                                         0.074788       0.011745
                          1       6    6dxy              2.521825       1.439472
                                                         1.453920      -1.228415
                                                         0.614053      -0.237899
                                                         0.232656       0.118891
                                                         0.074788       0.020343
                          1       6    6dxz              2.521825       1.439472
                                                         1.453920      -1.228415
                                                         0.614053      -0.237899
                                                         0.232656       0.118891
                                                         0.074788       0.020343
                          1       6    6dy2              2.521825       0.831079
                                                         1.453920      -0.709226
                                                         0.614053      -0.137351
                                                         0.232656       0.068642
                                                         0.074788       0.011745
                          1       6    6dyz              2.521825       1.439472
                                                         1.453920      -1.228415
                                                         0.614053      -0.237899
                                                         0.232656       0.118891
                                                         0.074788       0.020343
                          1       6    6dz2              2.521825       0.831079
                                                         1.453920      -0.709226
                                                         0.614053      -0.137351
                                                         0.232656       0.068642
                                                         0.074788       0.011745

       Atomic covalent radius [Angstrom]:                                  1.300

       Atomic van der Waals radius [Angstrom]:                             1.750

     GTH Potential information for                                   GTH-PBE-q10

       Description:                       Goedecker-Teter-Hutter pseudopotential
                                           Goedecker et al., PRB 54, 1703 (1996)
                                          Hartwigsen et al., PRB 58, 3641 (1998)
                                                      Krack, TCA 114, 145 (2005)

       Gaussian exponent of the core charge distribution:               1.317676
       Electronic configuration (s p d ...):                           1   0   9

       Parameters of the local part of the GTH pseudopotential:

                          rloc        C1          C2          C3          C4
                        0.616000   11.313635

       Parameters of the non-local part of the GTH pseudopotential:

                   l      r(l)      h(i,j,l)

                   0    0.550904    4.733491   -1.784594
                                   -1.784594    2.303901
                   1    0.674138    2.534798   -1.778066
                                   -1.778066    2.103836
                   2    0.457392   -7.264011    2.558665
                                    2.558665   -2.901253


 MOLECULE KIND INFORMATION


 All atoms are their own molecule, skipping detailed information


 TOTAL NUMBERS AND MAXIMUM NUMBERS

  Total number of            - Atomic kinds:                                   3
                             - Atoms:                                        906
                             - Shell sets:                                   906
                             - Shells:                                      3826
                             - Primitive Cartesian functions:               4530
                             - Cartesian basis functions:                  10488
                             - Spherical basis functions:                   9610

  Maximum angular momentum of- Orbital basis functions:                        2
                             - Local part of the GTH pseudopotential:          2
                             - Non-local part of the GTH pseudopotential:      4


 MODULE QUICKSTEP:  ATOMIC COORDINATES IN angstrom

 Atom  Kind  Element       X           Y           Z          Z(eff)       Mass
    1   1 O    8       0.960000   -7.330000    8.790001       6.0000     15.9994
    2   2 H    1       1.880000   -7.610001    8.870000       1.0000      1.0079
    3   2 H    1       0.930000   -7.370000    7.760000       1.0000      1.0079
    4   1 O    8      10.800000    7.460001   19.290001       6.0000     15.9994
    5   2 H    1      10.130000    7.290000   18.520000       1.0000      1.0079
    6   2 H    1      11.250000    6.530001   19.470001       1.0000      1.0079
    7   1 O    8      -4.410000  -28.470001   12.060001       6.0000     15.9994
    8   2 H    1      -4.890000  -29.130001   11.580001       1.0000      1.0079
    9   2 H    1      -4.970000  -27.710001   11.840000       1.0000      1.0079
   10   1 O    8      11.770000    6.070001    9.270000       6.0000     15.9994
   11   2 H    1      11.900001    5.700001    8.350000       1.0000      1.0079
   12   2 H    1      12.500000    6.660000    9.420000       1.0000      1.0079
   13   1 O    8      18.590000  -29.190002   26.560001       6.0000     15.9994
   14   2 H    1      18.190001  -29.260002   25.690001       1.0000      1.0079
   15   2 H    1      19.400002  -29.690001   26.700001       1.0000      1.0079
   16   1 O    8       8.710001   23.300001   19.530001       6.0000     15.9994
   17   2 H    1       9.500000   23.750000   19.120001       1.0000      1.0079
   18   2 H    1       8.160001   23.920002   20.030001       1.0000      1.0079
   19   1 O    8     -20.000000   15.320001   25.490000       6.0000     15.9994
   20   2 H    1     -20.610001   14.590001   25.960003       1.0000      1.0079
   21   2 H    1     -20.600002   16.080000   25.320000       1.0000      1.0079
   22   1 O    8       6.890000   29.260002    9.390000       6.0000     15.9994
   23   2 H    1       6.410000   28.700001   10.160000       1.0000      1.0079
   24   2 H    1      14.630001   15.130001    9.010000       1.0000      1.0079
   25   1 O    8     -31.800001  -28.520002   20.220001       6.0000     15.9994
   26   2 H    1     -31.420002  -27.570002   20.070002       1.0000      1.0079
   27   2 H    1     -31.460001  -28.840000   21.130001       1.0000      1.0079
   28   1 O    8      25.860003   14.340000   18.130001       6.0000     15.9994
   29   2 H    1      24.880001   14.540001   18.420002       1.0000      1.0079
   30   2 H    1      26.280001   14.760000   18.920000       1.0000      1.0079
   31   1 O    8      12.770000   -7.160000   15.900001       6.0000     15.9994
   32   2 H    1      13.220000   -7.630000   15.160000       1.0000      1.0079
   33   2 H    1      12.880001   -6.190000   15.640001       1.0000      1.0079
   34   1 O    8      -7.820001  -30.470001   15.110001       6.0000     15.9994
   35   2 H    1      -8.200001  -30.090000   14.270000       1.0000      1.0079
   36   2 H    1      -8.510000  -30.410002   15.810001       1.0000      1.0079
   37   1 O    8     -21.220001  -12.600001   32.029999       6.0000     15.9994
   38   2 H    1     -20.800001  -12.180000   32.800003       1.0000      1.0079
   39   2 H    1     -20.990002  -13.540001   32.180000       1.0000      1.0079
   40   1 O    8      29.380001   17.020000   12.510000       6.0000     15.9994
   41   2 H    1      29.100000   17.040001   13.460001       1.0000      1.0079
   42   2 H    1      28.690002   16.500000   12.100000       1.0000      1.0079
   43   1 O    8      -1.350000  -13.930000   33.190002       6.0000     15.9994
   44   2 H    1      -1.070000  -12.980001   32.880001       1.0000      1.0079
   45   2 H    1      -0.770000  -14.400001   32.570004       1.0000      1.0079
   46   1 O    8       2.010000   24.890001   32.530003       6.0000     15.9994
   47   2 H    1       2.180000   25.410002   33.330002       1.0000      1.0079
   48   2 H    1       2.510000   24.050003   32.800003       1.0000      1.0079
   49   1 O    8     -15.410002   17.880001   27.730003       6.0000     15.9994
   50   2 H    1     -15.460001   18.620001   27.070000       1.0000      1.0079
   51   2 H    1     -16.320002   17.680000   28.140001       1.0000      1.0079
   52   1 O    8     -13.200001    9.770000   12.330000       6.0000     15.9994
   53   2 H    1     -12.450000    9.230001   11.980001       1.0000      1.0079
   54   2 H    1     -12.830001   10.150002   13.150001       1.0000      1.0079
   55   1 O    8       3.730000  -14.730001   22.710001       6.0000     15.9994
   56   2 H    1       2.900000  -15.140000   22.970001       1.0000      1.0079
   57   2 H    1       4.420000  -15.270000   23.050001       1.0000      1.0079
   58   1 O    8      25.410002    1.910000   11.850000       6.0000     15.9994
   59   2 H    1      24.660000    2.430000   11.360001       1.0000      1.0079
   60   2 H    1      25.060001    1.040000   11.820001       1.0000      1.0079
   61   1 O    8     -19.370001   40.389999   32.430004       6.0000     15.9994
   62   2 H    1     -19.390001   40.970001   33.220001       1.0000      1.0079
   63   2 H    1      -2.650000   39.529999   32.830002       1.0000      1.0079
   64   1 O    8      36.380001  -28.970001   11.340000       6.0000     15.9994
   65   2 H    1      36.799999  -29.620001   11.940001       1.0000      1.0079
   66   2 H    1      52.280003  -29.040001   11.650001       1.0000      1.0079
   67   1 O    8     -14.310001    2.950000   22.780001       6.0000     15.9994
   68   2 H    1     -23.420000   17.990002   23.350000       1.0000      1.0079
   69   2 H    1     -14.270000    1.980000   22.910002       1.0000      1.0079
   70   1 O    8      -5.560000   26.480003   26.480003       6.0000     15.9994
   71   2 H    1      -5.810000   25.850000   27.299999       1.0000      1.0079
   72   2 H    1      -6.440001   26.470001   26.040001       1.0000      1.0079
   73   1 O    8     -30.810001   -1.680000   33.300003       6.0000     15.9994
   74   2 H    1     -31.660002   -1.170000   33.090004       1.0000      1.0079
   75   2 H    1     -30.030003   -1.170000   32.950001       1.0000      1.0079
   76   1 O    8     -10.000000    3.480000   24.050003       6.0000     15.9994
   77   2 H    1     -10.470000    2.690000   24.190002       1.0000      1.0079
   78   2 H    1      -9.230001    3.240000   24.620001       1.0000      1.0079
   79   1 O    8      -0.990000  -37.860001   11.770000       6.0000     15.9994
   80   2 H    1      -1.550000  -38.430000   12.300000       1.0000      1.0079
   81   2 H    1      -0.900000  -38.290001   10.910001       1.0000      1.0079
   82   1 O    8      15.340000  -10.559999   15.040001       6.0000     15.9994
   83   2 H    1      16.090000  -10.460000   15.630001       1.0000      1.0079
   84   2 H    1      15.600000  -11.460000   14.670001       1.0000      1.0079
   85   1 O    8      -3.440000   16.440001    8.960000       6.0000     15.9994
   86   2 H    1      -3.540000   16.790001    8.040000       1.0000      1.0079
   87   2 H    1      -4.310000   16.570000    9.260000       1.0000      1.0079
   88   1 O    8       5.730000   -2.820000   15.110001       6.0000     15.9994
   89   2 H    1     -10.780001   -3.380000   15.810001       1.0000      1.0079
   90   2 H    1       5.900001   -3.280000   14.240000       1.0000      1.0079
   91   1 O    8      -0.200000   -2.400000   14.570000       6.0000     15.9994
   92   2 H    1      -0.420000   -3.030000   15.330001       1.0000      1.0079
   93   2 H    1      -0.790000   -1.630000   14.730001       1.0000      1.0079
   94   1 O    8      21.049999   41.630001   20.240002       6.0000     15.9994
   95   2 H    1      20.470001   41.510002   21.040001       1.0000      1.0079
   96   2 H    1      20.420000   42.120003   19.610001       1.0000      1.0079
   97   1 O    8     -22.720001  -15.310000    8.760000       6.0000     15.9994
   98   2 H    1     -22.800003  -14.700001    8.050001       1.0000      1.0079
   99   2 H    1     -22.660000  -14.950001    9.660000       1.0000      1.0079
  100   1 O    8      -1.830000    1.100000   11.710000       6.0000     15.9994
  101   2 H    1      -1.410000    1.420000   10.920000       1.0000      1.0079
  102   2 H    1      -2.810000    1.070000   11.620001       1.0000      1.0079
  103   1 O    8      29.810001    2.050000    8.160001       6.0000     15.9994
  104   2 H    1      28.840000    2.400000    8.490001       1.0000      1.0079
  105   2 H    1      13.160001    1.200000    8.520000       1.0000      1.0079
  106   1 O    8      -4.260000   11.970000    8.330001       6.0000     15.9994
  107   2 H    1      -4.550000   11.080000    8.570001       1.0000      1.0079
  108   2 H    1      -5.000000   12.720001    8.550000       1.0000      1.0079
  109   1 O    8      25.680000   14.180001   12.510000       6.0000     15.9994
  110   2 H    1      25.410002   13.520001   13.180000       1.0000      1.0079
  111   2 H    1      24.880001   14.880000   12.320002       1.0000      1.0079
  112   1 O    8     -25.840000    7.040000   22.090000       6.0000     15.9994
  113   2 H    1     -25.770000    6.090000   21.900002       1.0000      1.0079
  114   2 H    1     -26.460001    7.450001   21.430000       1.0000      1.0079
  115   1 O    8      14.130001   24.300001    7.990000       6.0000     15.9994
  116   2 H    1      14.270000   23.310001    8.170000       1.0000      1.0079
  117   2 H    1      15.030001   24.630001    8.330001       1.0000      1.0079
  118   1 O    8     -21.230001   17.900002   25.120001       6.0000     15.9994
  119   2 H    1     -21.840000   17.990002   24.270000       1.0000      1.0079
  120   2 H    1     -21.870001   17.740000   25.790003       1.0000      1.0079
  121   1 O    8       0.790000   -7.710000   17.240002       6.0000     15.9994
  122   2 H    1       0.890000   -8.700001   17.070002       1.0000      1.0079
  123   2 H    1       1.110000   -7.180000   16.360001       1.0000      1.0079
  124   1 O    8     -20.410002   14.180001   32.090000       6.0000     15.9994
  125   2 H    1     -28.870001   28.300001   31.180000       1.0000      1.0079
  126   2 H    1     -19.550001   14.550000   32.340004       1.0000      1.0079
  127   1 O    8      -7.160000   -4.010000   15.320001       6.0000     15.9994
  128   2 H    1      -7.290000   -3.040000   15.160000       1.0000      1.0079
  129   2 H    1     -15.060000   10.450001   16.220001       1.0000      1.0079
  130   1 O    8      -8.950001    2.640000   31.730001       6.0000     15.9994
  131   2 H    1      -7.960001    2.910000   31.850002       1.0000      1.0079
  132   2 H    1      -9.400001    3.520000   31.960001       1.0000      1.0079
  133   1 O    8      -2.530000   27.000000   11.440001       6.0000     15.9994
  134   2 H    1      -2.960000   27.670002   12.020000       1.0000      1.0079
  135   2 H    1      -1.640000   26.920002   11.810001       1.0000      1.0079
  136   1 O    8     -33.300003   14.350000   26.910002       6.0000     15.9994
  137   2 H    1     -33.310001   13.540001   26.360001       1.0000      1.0079
  138   2 H    1     -32.470001   14.300001   27.510002       1.0000      1.0079
  139   1 O    8      -2.040000   -2.340000   29.580002       6.0000     15.9994
  140   2 H    1      -1.160000   -2.450000   29.280003       1.0000      1.0079
  141   2 H    1      -2.590000   -1.870000   28.900002       1.0000      1.0079
  142   1 O    8      -0.150000   15.300001   20.540001       6.0000     15.9994
  143   2 H    1       0.580000   15.210000   19.850002       1.0000      1.0079
  144   2 H    1      -0.800000   14.680000   20.170002       1.0000      1.0079
  145   1 O    8     -15.160000   26.430000   18.160002       6.0000     15.9994
  146   2 H    1       2.360000   26.540001   18.820002       1.0000      1.0079
  147   2 H    1     -15.740002   27.240002   18.220001       1.0000      1.0079
  148   1 O    8     -31.870001   18.010002   32.210003       6.0000     15.9994
  149   2 H    1     -31.400002   18.390001   31.350002       1.0000      1.0079
  150   2 H    1     -31.350002   17.210001   32.350002       1.0000      1.0079
  151   1 O    8      -8.140000   -2.740000   25.250000       6.0000     15.9994
  152   2 H    1      -7.910000   -2.720000   24.320002       1.0000      1.0079
  153   2 H    1      -9.040001   -3.300000   25.470001       1.0000      1.0079
  154   1 O    8     -29.730000  -19.340002   22.400000       6.0000     15.9994
  155   2 H    1     -29.500000  -19.270000   21.400002       1.0000      1.0079
  156   2 H    1     -29.710003  -20.340002   22.510002       1.0000      1.0079
  157   1 O    8      16.960001  -10.120001    9.160001       6.0000     15.9994
  158   2 H    1      17.540001   -9.290000    9.000000       1.0000      1.0079
  159   2 H    1      17.580002  -10.830001    8.880001       1.0000      1.0079
  160   1 O    8      -7.250000   -5.560000   13.140000       6.0000     15.9994
  161   2 H    1      -6.360001   -5.620000   12.720001       1.0000      1.0079
  162   2 H    1      -7.150001   -5.110001   13.980001       1.0000      1.0079
  163   1 O    8      34.620003   -9.010000   26.250002       6.0000     15.9994
  164   2 H    1      34.660000   -8.260000   26.880001       1.0000      1.0079
  165   2 H    1      33.740002   -8.840000   25.800001       1.0000      1.0079
  166   1 O    8       1.950000   -2.120000   23.660002       6.0000     15.9994
  167   2 H    1       1.420000   -2.160000   24.520000       1.0000      1.0079
  168   2 H    1       1.260000   -2.550000   23.050001       1.0000      1.0079
  169   1 O    8     -49.630005    6.210001   25.690001       6.0000     15.9994
  170   2 H    1     -31.890001    6.730001   25.750000       1.0000      1.0079
  171   2 H    1     -33.450005    6.890000   25.750000       1.0000      1.0079
  172   1 O    8       9.610001  -13.570002   15.680000       6.0000     15.9994
  173   2 H    1       9.040001  -13.790001   16.440001       1.0000      1.0079
  174   2 H    1       9.160001  -13.130001   14.940001       1.0000      1.0079
  175   1 O    8       8.170000  -14.190001   21.760002       6.0000     15.9994
  176   2 H    1       8.760000  -13.590001   21.240002       1.0000      1.0079
  177   2 H    1       7.230001  -13.690001   21.750002       1.0000      1.0079
  178   1 O    8      -9.340000   20.180000   30.180000       6.0000     15.9994
  179   2 H    1      -9.160001   20.930002   30.750000       1.0000      1.0079
  180   2 H    1      -8.760000   20.170002   29.410002       1.0000      1.0079
  181   1 O    8      12.620001   14.330001   17.770000       6.0000     15.9994
  182   2 H    1      11.870001   14.190001   18.390001       1.0000      1.0079
  183   2 H    1      12.180000   13.850001   17.030001       1.0000      1.0079
  184   1 O    8       6.890000   -9.100000   18.140001       6.0000     15.9994
  185   2 H    1       7.870001   -9.050000   18.420002       1.0000      1.0079
  186   2 H    1       6.760001   -8.240001   17.680000       1.0000      1.0079
  187   1 O    8     -22.390001   49.650002    9.200000       6.0000     15.9994
  188   2 H    1     -23.210001   50.150002    9.110001       1.0000      1.0079
  189   2 H    1     -21.780003   49.980003    8.460000       1.0000      1.0079
  190   1 O    8       9.530001   19.480001   18.810001       6.0000     15.9994
  191   2 H    1      10.190001   18.870001   19.310001       1.0000      1.0079
  192   2 H    1      10.140000   20.210001   18.340000       1.0000      1.0079
  193   1 O    8       8.220000    3.220000   19.180000       6.0000     15.9994
  194   2 H    1       8.640000    3.740000   19.950001       1.0000      1.0079
  195   2 H    1       8.190001    2.260000   19.440001       1.0000      1.0079
  196   1 O    8     -41.540001  -11.260000   11.840000       6.0000     15.9994
  197   2 H    1     -40.880005  -11.360001   11.130000       1.0000      1.0079
  198   2 H    1     -41.400002  -10.420000   12.290001       1.0000      1.0079
  199   1 O    8     -21.870001   22.670002   31.550003       6.0000     15.9994
  200   2 H    1     -21.860001   22.510002   30.580002       1.0000      1.0079
  201   2 H    1     -20.910000   23.010002   31.680002       1.0000      1.0079
  202   1 O    8      12.170000   12.990000   12.850000       6.0000     15.9994
  203   2 H    1      11.840000   12.980001   13.840000       1.0000      1.0079
  204   2 H    1      11.940001   12.060001   12.560000       1.0000      1.0079
  205   1 O    8      19.950001    2.950000   15.010000       6.0000     15.9994
  206   2 H    1      10.920000   16.900002   15.520000       1.0000      1.0079
  207   2 H    1      20.500002    3.450000   15.660001       1.0000      1.0079
  208   1 O    8     -21.950001   -9.160001   12.170000       6.0000     15.9994
  209   2 H    1     -22.170000   -9.110001   11.180000       1.0000      1.0079
  210   2 H    1     -21.860001  -10.150002   12.230001       1.0000      1.0079
  211   1 O    8      -9.640000   -6.810000   25.380001       6.0000     15.9994
  212   2 H    1     -10.450001   -7.330000   25.690001       1.0000      1.0079
  213   2 H    1      -9.700001   -6.640000   24.400002       1.0000      1.0079
  214   1 O    8      18.160002    9.310000   32.770000       6.0000     15.9994
  215   2 H    1      18.600002    9.360001   33.630001       1.0000      1.0079
  216   2 H    1      18.850000    9.020000   32.150002       1.0000      1.0079
  217   1 O    8     -42.840004   10.660001   12.040001       6.0000     15.9994
  218   2 H    1     -42.239998   11.120001   12.720001       1.0000      1.0079
  219   2 H    1     -42.380005   10.590000   11.160001       1.0000      1.0079
  220   1 O    8      29.350002   10.880001   23.050001       6.0000     15.9994
  221   2 H    1      28.560001   11.370001   23.280001       1.0000      1.0079
  222   2 H    1      29.220001    9.940001   23.130001       1.0000      1.0079
  223   1 O    8      10.220001    1.030000   18.580000       6.0000     15.9994
  224   2 H    1      27.970001    1.150000   18.970001       1.0000      1.0079
  225   2 H    1      10.270000    1.490000   17.730001       1.0000      1.0079
  226   1 O    8       6.390000   35.730003   17.750000       6.0000     15.9994
  227   2 H    1       7.340000   35.779999   17.410000       1.0000      1.0079
  228   2 H    1      22.620001   35.950005   17.060001       1.0000      1.0079
  229   1 O    8     -15.260000   29.480001   29.750002       6.0000     15.9994
  230   2 H    1     -15.530001   29.570004   30.710001       1.0000      1.0079
  231   2 H    1     -14.390000   30.040001   29.660000       1.0000      1.0079
  232   1 O    8       0.820000   -0.030000   32.480003       6.0000     15.9994
  233   2 H    1      -0.040000   -0.500000   32.250000       1.0000      1.0079
  234   2 H    1       0.420000    0.610000   33.110001       1.0000      1.0079
  235   1 O    8      -7.860000   31.110001   25.020000       6.0000     15.9994
  236   2 H    1      -7.930000   30.530003   25.820000       1.0000      1.0079
  237   2 H    1      -7.700000   30.580002   24.230001       1.0000      1.0079
  238   1 O    8      -2.950000    6.160001   26.620003       6.0000     15.9994
  239   2 H    1     -12.190001   21.049999   26.170002       1.0000      1.0079
  240   2 H    1      -2.810000    5.280000   26.320002       1.0000      1.0079
  241   1 O    8      21.680002   -1.320000   29.690001       6.0000     15.9994
  242   2 H    1      20.990002   -2.080000   29.640003       1.0000      1.0079
  243   2 H    1      22.540001   -1.730000   29.610003       1.0000      1.0079
  244   1 O    8      -1.320000   -7.700000   24.870003       6.0000     15.9994
  245   2 H    1      -1.360000   -7.750000   23.870001       1.0000      1.0079
  246   2 H    1      -2.060000   -8.300000   25.310001       1.0000      1.0079
  247   1 O    8      13.280001    1.240000   28.500002       6.0000     15.9994
  248   2 H    1      12.630000    2.020000   28.610001       1.0000      1.0079
  249   2 H    1      14.160000    1.640000   28.490002       1.0000      1.0079
  250   1 O    8      26.030003   -9.650001   15.230001       6.0000     15.9994
  251   2 H    1      26.810001  -10.250001   15.220001       1.0000      1.0079
  252   2 H    1      26.030003   -9.150001   14.300001       1.0000      1.0079
  253   1 O    8      -1.200000    3.080000   19.380001       6.0000     15.9994
  254   2 H    1      -0.440000    3.630000   19.240002       1.0000      1.0079
  255   2 H    1      -1.090000    2.400000   18.670002       1.0000      1.0079
  256   1 O    8       7.410001  -18.960001   16.000000       6.0000     15.9994
  257   2 H    1       8.050001  -19.620001   15.710001       1.0000      1.0079
  258   2 H    1       7.390000  -19.000000   17.010000       1.0000      1.0079
  259   1 O    8     -10.110001   26.680002   22.730000       6.0000     15.9994
  260   2 H    1     -10.310000   27.660000   22.660000       1.0000      1.0079
  261   2 H    1     -11.030001   26.310001   22.880001       1.0000      1.0079
  262   1 O    8       0.110000   -3.780000   22.270000       6.0000     15.9994
  263   2 H    1      -0.510000   -3.310000   21.680002       1.0000      1.0079
  264   2 H    1       0.500000   -4.510000   21.800001       1.0000      1.0079
  265   1 O    8      24.820002   -9.840000    9.630001       6.0000     15.9994
  266   2 H    1      24.820002  -10.430001   10.420000       1.0000      1.0079
  267   2 H    1      33.510002    5.700001    9.880000       1.0000      1.0079
  268   1 O    8      -4.500000  -12.980001   29.380001       6.0000     15.9994
  269   2 H    1      -3.690000  -13.380001   28.980003       1.0000      1.0079
  270   2 H    1      -4.190001  -12.560000   30.230003       1.0000      1.0079
  271   1 O    8       4.340000   -3.420000   20.160000       6.0000     15.9994
  272   2 H    1       3.840000   -3.600000   20.950001       1.0000      1.0079
  273   2 H    1       4.390000   -4.340000   19.700001       1.0000      1.0079
  274   1 O    8     -10.420000  -10.170001   23.240002       6.0000     15.9994
  275   2 H    1     -10.710001   -9.630001   22.500000       1.0000      1.0079
  276   2 H    1      -9.410001  -10.100000   23.390003       1.0000      1.0079
  277   1 O    8       8.100000   10.540000    9.340000       6.0000     15.9994
  278   2 H    1      -7.860000   10.310000    9.040001       1.0000      1.0079
  279   2 H    1       8.090000   11.530000    9.330000       1.0000      1.0079
  280   1 O    8      27.450001   -0.230000   29.280003       6.0000     15.9994
  281   2 H    1      27.660000   -1.180000   29.550001       1.0000      1.0079
  282   2 H    1      28.190002    0.310000   29.430000       1.0000      1.0079
  283   1 O    8      17.030001  -15.500001   12.420001       6.0000     15.9994
  284   2 H    1       9.390000   -1.160000   11.900001       1.0000      1.0079
  285   2 H    1      16.200001  -15.840001   12.020000       1.0000      1.0079
  286   1 O    8     -37.140003   28.030003   27.120001       6.0000     15.9994
  287   2 H    1     -20.280001   28.900002   27.690001       1.0000      1.0079
  288   2 H    1     -37.970001   27.530001   27.100000       1.0000      1.0079
  289   1 O    8      -4.080000    9.020000   18.230001       6.0000     15.9994
  290   2 H    1      -4.410000    9.500000   17.450001       1.0000      1.0079
  291   2 H    1      -4.880000    8.350000   18.610001       1.0000      1.0079
  292   1 O    8      24.180002   -5.010000   28.800001       6.0000     15.9994
  293   2 H    1      24.170000   -4.160000   29.330002       1.0000      1.0079
  294   2 H    1      23.910000   -4.620000   27.940002       1.0000      1.0079
  295   1 O    8       7.880001   16.390001   28.430002       6.0000     15.9994
  296   2 H    1       7.910000   16.400002   27.440002       1.0000      1.0079
  297   2 H    1       8.520000   15.700001   28.670002       1.0000      1.0079
  298   1 O    8      -1.440000   17.780001   28.940001       6.0000     15.9994
  299   2 H    1      -0.960000   17.700001   29.790001       1.0000      1.0079
  300   2 H    1      -1.670000   16.860001   28.540001       1.0000      1.0079
  301   1 O    8     -17.780001   10.240001   11.910001       6.0000     15.9994
  302   2 H    1     -17.510000   10.170001   11.000000       1.0000      1.0079
  303   2 H    1     -17.070002    9.750000   12.460001       1.0000      1.0079
  304   1 O    8      -0.830000    2.280000   25.660002       6.0000     15.9994
  305   2 H    1      -1.830000    2.480000   25.710001       1.0000      1.0079
  306   2 H    1      -0.770000    1.340000   25.190001       1.0000      1.0079
  307   1 O    8     -25.470001   13.180000    8.990001       6.0000     15.9994
  308   2 H    1     -26.070002   13.460001    8.230000       1.0000      1.0079
  309   2 H    1     -24.540003   13.330001    8.710001       1.0000      1.0079
  310   1 O    8     -19.040001   14.670001   23.050001       6.0000     15.9994
  311   2 H    1     -18.240002   15.190001   22.700003       1.0000      1.0079
  312   2 H    1     -19.210001   14.980001   23.960001       1.0000      1.0079
  313   1 O    8      -2.120000   13.530001   19.720001       6.0000     15.9994
  314   2 H    1      -2.700000   12.900001   20.200001       1.0000      1.0079
  315   2 H    1      -2.720000   13.880000   19.050001       1.0000      1.0079
  316   1 O    8       5.950000  -13.260001   32.250000       6.0000     15.9994
  317   2 H    1       6.300001  -12.650002   31.540001       1.0000      1.0079
  318   2 H    1       6.090000  -12.840000   33.150002       1.0000      1.0079
  319   1 O    8      -5.530000  -11.360001   20.020000       6.0000     15.9994
  320   2 H    1      -4.600000  -10.990001   19.860001       1.0000      1.0079
  321   2 H    1      -5.760000  -11.250000   20.950001       1.0000      1.0079
  322   1 O    8      30.480001   -9.560000   22.299999       6.0000     15.9994
  323   2 H    1      31.150002   -9.750000   21.630001       1.0000      1.0079
  324   2 H    1      30.980000   -9.730001   23.160002       1.0000      1.0079
  325   1 O    8      -7.920001    4.360000   16.930000       6.0000     15.9994
  326   2 H    1      -7.210000    3.780000   16.560001       1.0000      1.0079
  327   2 H    1      -8.200001    3.700000   17.690001       1.0000      1.0079
  328   1 O    8       2.810000   -1.060000   15.610001       6.0000     15.9994
  329   2 H    1       2.460000   -0.150000   15.440001       1.0000      1.0079
  330   2 H    1       2.000000   -1.610000   15.770000       1.0000      1.0079
  331   1 O    8     -18.880001   53.209999   28.400002       6.0000     15.9994
  332   2 H    1     -19.670002   53.170006   27.810001       1.0000      1.0079
  333   2 H    1     -18.950001   54.120003   28.720001       1.0000      1.0079
  334   1 O    8      -6.290000   -4.840000   17.830002       6.0000     15.9994
  335   2 H    1      -5.400000   -4.770000   18.210001       1.0000      1.0079
  336   2 H    1      -6.450000   -5.810000   17.580002       1.0000      1.0079
  337   1 O    8       8.530001   28.450001   31.360001       6.0000     15.9994
  338   2 H    1      17.400002   13.260001   32.010002       1.0000      1.0079
  339   2 H    1      -7.640000   28.890001   30.850000       1.0000      1.0079
  340   1 O    8      20.280001   25.050001   16.070002       6.0000     15.9994
  341   2 H    1      20.950001   25.600002   15.550001       1.0000      1.0079
  342   2 H    1      19.880001   25.700001   16.700001       1.0000      1.0079
  343   1 O    8       6.580000    0.870000   28.010002       6.0000     15.9994
  344   2 H    1       7.420001    0.380000   28.050001       1.0000      1.0079
  345   2 H    1       6.340000    0.690000   27.060001       1.0000      1.0079
  346   1 O    8      -0.590000   -7.190001   29.630001       6.0000     15.9994
  347   2 H    1      -1.220000   -7.880001   29.240000       1.0000      1.0079
  348   2 H    1      -0.900000   -6.350000   29.290001       1.0000      1.0079
  349   1 O    8       2.690000    2.720000   27.310001       6.0000     15.9994
  350   2 H    1       3.380000    2.540000   27.950001       1.0000      1.0079
  351   2 H    1       2.170000    1.920000   27.290001       1.0000      1.0079
  352   1 O    8      -4.810000   21.730001   28.900002       6.0000     15.9994
  353   2 H    1      -5.470000   21.030003   28.780001       1.0000      1.0079
  354   2 H    1      -3.950000   21.220001   28.880003       1.0000      1.0079
  355   1 O    8       5.210000   -4.850000   13.160001       6.0000     15.9994
  356   2 H    1       6.130000   -4.900000   12.710000       1.0000      1.0079
  357   2 H    1       5.150001   -5.750000   13.660001       1.0000      1.0079
  358   1 O    8       6.060000   16.750000   21.690002       6.0000     15.9994
  359   2 H    1       6.240000   17.360001   22.460001       1.0000      1.0079
  360   2 H    1       6.410000   17.200001   20.940001       1.0000      1.0079
  361   1 O    8     -32.370003    5.130000   28.330002       6.0000     15.9994
  362   2 H    1     -32.700001    5.580000   27.520000       1.0000      1.0079
  363   2 H    1     -32.070004    4.120000   28.120001       1.0000      1.0079
  364   1 O    8      -3.370000   34.130001   11.380000       6.0000     15.9994
  365   2 H    1      -2.690000   34.760002   11.410000       1.0000      1.0079
  366   2 H    1      -3.770000   34.260002   10.450001       1.0000      1.0079
  367   1 O    8      14.040001   20.680000   13.830000       6.0000     15.9994
  368   2 H    1      13.340001   20.480001   13.120001       1.0000      1.0079
  369   2 H    1      14.360001   19.860001   14.300001       1.0000      1.0079
  370   1 O    8     -17.220001   -5.380001   26.130001       6.0000     15.9994
  371   2 H    1     -17.810001   -5.360000   26.940002       1.0000      1.0079
  372   2 H    1     -17.610001   -6.180000   25.760002       1.0000      1.0079
  373   1 O    8      -3.730000   -2.840000   32.380001       6.0000     15.9994
  374   2 H    1      -2.920000   -2.280000   32.280003       1.0000      1.0079
  375   2 H    1      -3.430000   -3.820000   32.560001       1.0000      1.0079
  376   1 O    8     -16.430000    9.920000    9.270000       6.0000     15.9994
  377   2 H    1     -15.450001   10.180000    9.400001       1.0000      1.0079
  378   2 H    1     -16.700001   10.360001    8.480000       1.0000      1.0079
  379   1 O    8      -2.560000   -9.130000   28.560001       6.0000     15.9994
  380   2 H    1      -2.380000  -10.060000   28.840000       1.0000      1.0079
  381   2 H    1      -2.710000   -9.120001   27.610001       1.0000      1.0079
  382   1 O    8       0.330000   -2.610000   25.800001       6.0000     15.9994
  383   2 H    1       0.490000   -2.310000   26.740000       1.0000      1.0079
  384   2 H    1      -0.430000   -3.230000   25.750000       1.0000      1.0079
  385   1 O    8      -7.410001   38.040001   15.190001       6.0000     15.9994
  386   2 H    1      -7.270000   37.590000   14.230001       1.0000      1.0079
  387   2 H    1      -6.750000   38.780003   15.330001       1.0000      1.0079
  388   1 O    8       3.990000   12.320002   15.390000       6.0000     15.9994
  389   2 H    1       3.470000   12.650002   16.170002       1.0000      1.0079
  390   2 H    1       3.420000   12.680000   14.650001       1.0000      1.0079
  391   1 O    8       4.130000   15.500001   19.910000       6.0000     15.9994
  392   2 H    1       3.930000   14.840001   20.660000       1.0000      1.0079
  393   2 H    1       4.500000   16.270000   20.389999       1.0000      1.0079
  394   1 O    8       7.370000   24.950001   16.780001       6.0000     15.9994
  395   2 H    1      16.690001   10.340000   16.260000       1.0000      1.0079
  396   2 H    1       7.100000   23.980000   16.860001       1.0000      1.0079
  397   1 O    8      14.250001    4.310000    7.940001       6.0000     15.9994
  398   2 H    1      14.030001    3.350000    8.110001       1.0000      1.0079
  399   2 H    1      15.030001    4.610000    8.440001       1.0000      1.0079
  400   1 O    8       8.860001   18.690001   24.080002       6.0000     15.9994
  401   2 H    1       8.460000   18.050001   24.710003       1.0000      1.0079
  402   2 H    1       9.080001   19.420002   24.730000       1.0000      1.0079
  403   1 O    8      20.220001   44.810005   32.190002       6.0000     15.9994
  404   2 H    1      20.010002   44.150005   32.830002       1.0000      1.0079
  405   2 H    1      21.240002   44.900002   32.170002       1.0000      1.0079
  406   1 O    8       6.960001   -2.580000   29.970001       6.0000     15.9994
  407   2 H    1       7.610001   -1.950000   30.290001       1.0000      1.0079
  408   2 H    1       6.590000   -2.980000   30.770000       1.0000      1.0079
  409   1 O    8      23.330002    3.190000   11.060000       6.0000     15.9994
  410   2 H    1      22.590000    2.890000   11.590000       1.0000      1.0079
  411   2 H    1      23.070002    2.900000   10.180000       1.0000      1.0079
  412   1 O    8     -25.550001  -14.490002   24.530001       6.0000     15.9994
  413   2 H    1     -26.220001  -15.250001   24.760000       1.0000      1.0079
  414   2 H    1     -25.330002  -14.380001   23.590002       1.0000      1.0079
  415   1 O    8     -28.170002   13.300000   24.470001       6.0000     15.9994
  416   2 H    1     -28.350000   13.420000   25.459999       1.0000      1.0079
  417   2 H    1     -28.040001   12.350000   24.260002       1.0000      1.0079
  418   1 O    8      19.780001   24.550001   11.740000       6.0000     15.9994
  419   2 H    1      20.470001   24.130001   12.350000       1.0000      1.0079
  420   2 H    1      19.100000   23.960001   12.080001       1.0000      1.0079
  421   1 O    8      16.480001    1.400000    9.130000       6.0000     15.9994
  422   2 H    1      16.550001    0.470000    9.210001       1.0000      1.0079
  423   2 H    1      16.570000    1.420000    8.150001       1.0000      1.0079
  424   1 O    8     -10.730000   10.610001   23.830002       6.0000     15.9994
  425   2 H    1      -9.850000   10.440001   23.380001       1.0000      1.0079
  426   2 H    1      -3.090000   -4.060000   23.220001       1.0000      1.0079
  427   1 O    8      -5.300000    6.170001   25.040001       6.0000     15.9994
  428   2 H    1      -5.430000    6.960001   24.480001       1.0000      1.0079
  429   2 H    1      -6.170001    5.950000   25.420000       1.0000      1.0079
  430   1 O    8     -10.330000    4.840000   32.440002       6.0000     15.9994
  431   2 H    1     -10.510000    4.930000   33.380001       1.0000      1.0079
  432   2 H    1     -11.270000    5.000000   32.040001       1.0000      1.0079
  433   1 O    8      -5.140000  -27.100000   24.530001       6.0000     15.9994
  434   2 H    1      -6.080000  -27.380001   24.910002       1.0000      1.0079
  435   2 H    1      -4.760000  -27.980001   24.120003       1.0000      1.0079
  436   1 O    8       4.680000   23.450001   29.670002       6.0000     15.9994
  437   2 H    1       5.590000   23.430002   29.250002       1.0000      1.0079
  438   2 H    1      12.610001    8.040000   29.360001       1.0000      1.0079
  439   1 O    8       3.190000    7.440000   25.230000       6.0000     15.9994
  440   2 H    1       3.570000    8.320000   25.530003       1.0000      1.0079
  441   2 H    1       3.350000    7.340000   24.260002       1.0000      1.0079
  442   1 O    8       6.930000   13.430000   31.920002       6.0000     15.9994
  443   2 H    1       6.490001   14.320001   32.000000       1.0000      1.0079
  444   2 H    1       6.960001   13.220000   30.990002       1.0000      1.0079
  445   1 O    8     -15.170001   11.900001   22.400000       6.0000     15.9994
  446   2 H    1     -15.820000   11.480000   21.780003       1.0000      1.0079
  447   2 H    1     -14.420000   11.270000   22.600000       1.0000      1.0079
  448   1 O    8       2.370000  -16.000000   11.060000       6.0000     15.9994
  449   2 H    1       1.910000  -15.690001   10.190001       1.0000      1.0079
  450   2 H    1      19.760000  -16.820000   10.790000       1.0000      1.0079
  451   1 O    8      15.220001   10.270000   26.150000       6.0000     15.9994
  452   2 H    1      15.360001    9.320001   25.930002       1.0000      1.0079
  453   2 H    1      14.240000   10.410000   26.120003       1.0000      1.0079
  454   1 O    8      -0.570000    7.450001   32.450001       6.0000     15.9994
  455   2 H    1       0.080000    8.210000   32.590000       1.0000      1.0079
  456   2 H    1      -0.220000    6.810000   33.060001       1.0000      1.0079
  457   1 O    8       5.950000  -20.920000   11.980001       6.0000     15.9994
  458   2 H    1       6.600000  -20.220001   12.120000       1.0000      1.0079
  459   2 H    1       6.230001  -21.730001   12.470001       1.0000      1.0079
  460   1 O    8      26.639999    8.460000   21.510000       6.0000     15.9994
  461   2 H    1      26.800001    8.160001   20.570002       1.0000      1.0079
  462   2 H    1       8.960000    7.900000   21.770000       1.0000      1.0079
  463   1 O    8     -10.800000  -24.250002    8.060000       6.0000     15.9994
  464   2 H    1     -10.840001  -23.340000    8.340000       1.0000      1.0079
  465   2 H    1      -9.800000  -24.490002    8.200001       1.0000      1.0079
  466   1 O    8       7.080000  -16.680000   20.730001       6.0000     15.9994
  467   2 H    1       7.540000  -15.840001   21.010000       1.0000      1.0079
  468   2 H    1       6.160001  -16.430000   20.520000       1.0000      1.0079
  469   1 O    8     -10.860001  -10.140000   32.430004       6.0000     15.9994
  470   2 H    1     -10.510000   -9.630001   33.150002       1.0000      1.0079
  471   2 H    1     -11.620001  -10.530001   32.860001       1.0000      1.0079
  472   1 O    8      -7.150001   -7.490000   21.440001       6.0000     15.9994
  473   2 H    1      -7.420001   -6.740000   20.700001       1.0000      1.0079
  474   2 H    1      -7.180000   -8.370000   21.060001       1.0000      1.0079
  475   1 O    8      20.970001   -1.040000   27.220001       6.0000     15.9994
  476   2 H    1      20.920000   -1.990000   27.020000       1.0000      1.0079
  477   2 H    1      21.290001   -0.950000   28.170002       1.0000      1.0079
  478   1 O    8     -22.420002   33.450005   22.889999       6.0000     15.9994
  479   2 H    1     -22.310001   32.580002   23.470001       1.0000      1.0079
  480   2 H    1     -22.480001   34.220001   23.540001       1.0000      1.0079
  481   1 O    8       6.410000   15.260000   18.030001       6.0000     15.9994
  482   2 H    1       5.690000   15.070001   18.640001       1.0000      1.0079
  483   2 H    1       6.430000   14.800000   17.150000       1.0000      1.0079
  484   1 O    8      -0.630000   45.459999   14.650001       6.0000     15.9994
  485   2 H    1      -1.130000   44.730000   15.070001       1.0000      1.0079
  486   2 H    1      -0.540000   45.370003   13.650000       1.0000      1.0079
  487   1 O    8       3.020000   52.190002   23.480000       6.0000     15.9994
  488   2 H    1       2.810000   52.450005   24.420002       1.0000      1.0079
  489   2 H    1       2.270000   52.010002   22.830000       1.0000      1.0079
  490   1 O    8       6.690001   21.570000   12.170000       6.0000     15.9994
  491   2 H    1       7.660000   21.400002   12.170000       1.0000      1.0079
  492   2 H    1       6.510000   22.260000   11.470001       1.0000      1.0079
  493   1 O    8       1.130000    2.930000   32.570004       6.0000     15.9994
  494   2 H    1      -7.900000   17.540001   31.750002       1.0000      1.0079
  495   2 H    1       1.870000    2.340000   32.360001       1.0000      1.0079
  496   1 O    8      11.350001   11.210001   29.920002       6.0000     15.9994
  497   2 H    1       3.290000   24.980001   29.680002       1.0000      1.0079
  498   2 H    1       2.620000   25.660002   30.860003       1.0000      1.0079
  499   1 O    8       7.200000   16.220001   14.390000       6.0000     15.9994
  500   2 H    1       7.030000   16.540001   13.470001       1.0000      1.0079
  501   2 H    1       7.080000   17.020000   15.010000       1.0000      1.0079
  502   1 O    8      -4.030000   -4.740000   19.610001       6.0000     15.9994
  503   2 H    1      -3.990000   -3.770000   19.550001       1.0000      1.0079
  504   2 H    1      -3.230000   -5.290000   19.670002       1.0000      1.0079
  505   1 O    8      30.640001    7.150001   14.550000       6.0000     15.9994
[...]
    899      3      Pt         -0.00734470     0.00523340    -0.00499544
    900      3      Pt          0.01840271    -0.02241854    -0.00879843
    901      3      Pt         -0.01660146    -0.00197757     0.02849647
    902      3      Pt          0.01640094    -0.00125973    -0.00291413
    903      3      Pt         -0.00941456    -0.00458206    -0.00719684
    904      3      Pt         -0.00219799    -0.00394220    -0.03038340
    905      3      Pt         -0.01227129     0.01513278    -0.00308803
    906      3      Pt          0.01748076     0.00259707     0.00040743
 SUM OF ATOMIC FORCES           0.01728098    -0.00270315    -0.00729100     0.01894988

 STRESS| Analytical stress tensor [GPa]
 STRESS|                        x                   y                   z
 STRESS|      x       -2.10135328860E+00  -1.57771797581E-01   1.97549671326E-01
 STRESS|      y       -1.57771797581E-01  -2.18511547303E+00   1.09840108296E-01
 STRESS|      z        1.97549671326E-01   1.09840108296E-01  -4.55607900874E-01
 STRESS| 1/3 Trace                                            -1.58069222084E+00
 STRESS| Determinant                                          -1.97689203754E+00

 STRESS| Eigenvectors and eigenvalues of the analytical stress tensor [GPa]
 STRESS|                        1                   2                   3
 STRESS| Eigenvalues  -2.32973099561E+00  -1.98482771124E+00  -4.27517955657E-01
 STRESS|      x           0.628261067764      0.769866609869      0.112220469347
 STRESS|      y           0.769992588748     -0.635935152149      0.051941270050
 STRESS|      z          -0.111352790734     -0.053776251920      0.992324881642

 -------------------------------------------------------------------------------
 -                                                                             -
 -                                DBCSR STATISTICS                             -
 -                                                                             -
 -------------------------------------------------------------------------------
 COUNTER                                    TOTAL       BLAS       SMM       ACC
 flops     5 x     5 x   288          77764766400       0.0%    100.0%      0.0%
 flops     5 x     5 x   292          78844832600       0.0%    100.0%      0.0%
 flops    20 x    13 x   288          86318369280       0.0%    100.0%      0.0%
 flops    13 x    20 x   288          86669256960       0.0%    100.0%      0.0%
 flops    20 x    13 x   292          87517235520       0.0%    100.0%      0.0%
 flops    13 x     5 x   288          87724578240       0.0%    100.0%      0.0%
 flops     5 x    13 x   288          87865464960       0.0%    100.0%      0.0%
 flops    13 x    20 x   292          87872996640       0.0%    100.0%      0.0%
 flops    13 x     5 x   292          88942975160       0.0%    100.0%      0.0%
 flops     5 x    13 x   292          89085818640       0.0%    100.0%      0.0%
 flops    13 x    13 x   288          93373338240       0.0%    100.0%      0.0%
 flops    13 x    13 x   292          94670190160       0.0%    100.0%      0.0%
 flops     5 x    20 x   288          94756032000       0.0%    100.0%      0.0%
 flops    20 x     5 x   288          94841913600       0.0%    100.0%      0.0%
 flops     5 x    20 x   292          96072088000       0.0%    100.0%      0.0%
 flops    20 x     5 x   292          96159162400       0.0%    100.0%      0.0%
 flops    20 x    20 x   288         383375462400       0.0%    100.0%      0.0%
 flops    20 x    20 x   292         388700121600       0.0%    100.0%      0.0%
 flops     5 x     5 x   320         518431776000       0.0%    100.0%      0.0%
 flops    20 x    13 x   320         575455795200       0.0%    100.0%      0.0%
 flops    13 x    20 x   320         577795046400       0.0%    100.0%      0.0%
 flops    13 x     5 x   320         584830521600       0.0%    100.0%      0.0%
 flops     5 x    13 x   320         585769766400       0.0%    100.0%      0.0%
 flops    13 x    13 x   320         622488921600       0.0%    100.0%      0.0%
 flops     5 x    20 x   320         631706880000       0.0%    100.0%      0.0%
 flops    20 x     5 x   320         632279424000       0.0%    100.0%      0.0%
 flops    20 x    20 x   320        2555836416000       0.0%    100.0%      0.0%
 flops inhomo. stacks                           0       0.0%      0.0%      0.0%
 flops total                         9.485149E+12       0.0%    100.0%      0.0%
 flops max/rank                    152.381975E+09       0.0%    100.0%      0.0%
 matmuls inhomo. stacks                         0       0.0%      0.0%      0.0%
 matmuls total                          137281056       0.0%    100.0%      0.0%
 number of processed stacks                363520       0.0%    100.0%      0.0%
 average stack size                                     0.0     377.6       0.0
 marketing flops                    27.022955E+12
 -------------------------------------------------------------------------------
 # multiplications                             71
 max memory usage/rank               1.861181E+09
 # max total images/rank                        1
 # max 3D layers                                1
 # MPI messages exchanged                   63616
 MPI messages size (bytes):
  total size                       191.046746E+09
  min size                           2.762496E+06
  max size                           3.077120E+06
  average size                       3.003124E+06
 MPI breakdown and total messages size (bytes):
             size <=      128                   0                        0
       128 < size <=     8192                   0                        0
      8192 < size <=    32768                   0                        0
     32768 < size <=   131072                   0                        0
    131072 < size <=  4194304               63616             191046800000
   4194304 < size <= 16777216                   0                        0
  16777216 < size                               0                        0
 -------------------------------------------------------------------------------
 -                                                                             -
 -                      DBCSR MESSAGE PASSING PERFORMANCE                      -
 -                                                                             -
 -------------------------------------------------------------------------------
 ROUTINE             CALLS      AVE VOLUME [Bytes]
 MP_Bcast               28                     12.
 MP_Allreduce          571                     10.
 MP_Alltoall          1988                1964023.
 MP_ISend             2272                1329597.
 MP_IRecv             2272                1310413.
 -------------------------------------------------------------------------------

 -------------------------------------------------------------------------------
 -                                                                             -
 -                                DBM STATISTICS                               -
 -                                                                             -
 -------------------------------------------------------------------------------
    M  x    N  x    K                                          COUNT     PERCENT
 -------------------------------------------------------------------------------

 -------------------------------------------------------------------------------
 -                                                                             -
 -                                GRID STATISTICS                              -
 -                                                                             -
 -------------------------------------------------------------------------------
 LP    KERNEL             BACKEND                              COUNT     PERCENT
 3     collocate general  REF                               49091814      18.79%
 3     integrate general  REF                               48458364      18.54%
 2     collocate general  REF                               46828476      17.92%
 2     integrate general  REF                               46168920      17.67%
 4     collocate general  REF                               34627055      13.25%
 4     integrate general  REF                               34139350      13.06%
 6     integrate general  REF                                 691434       0.26%
 5     integrate general  REF                                 659556       0.25%
 7     integrate general  REF                                 487705       0.19%
 0     collocate general  REF                                 115968       0.04%
 0     integrate general  REF                                  57984       0.02%
 -------------------------------------------------------------------------------

 MEMORY| Estimated peak process memory [MiB]                                2091

 -------------------------------------------------------------------------------
 ----                             MULTIGRID INFO                            ----
 -------------------------------------------------------------------------------
 count for grid        1:         731385          cutoff [a.u.]          200.00
 count for grid        2:         807138          cutoff [a.u.]           66.67
 count for grid        3:         741661          cutoff [a.u.]           22.22
 count for grid        4:         831647          cutoff [a.u.]            7.41
 total gridlevel count  :        3111831

 -------------------------------------------------------------------------------
 -                                                                             -
 -                         MESSAGE PASSING PERFORMANCE                         -
 -                                                                             -
 -------------------------------------------------------------------------------

 ROUTINE             CALLS      AVE VOLUME [Bytes]
 MP_Group                4
 MP_Bcast              242                2439526.
 MP_Allreduce         1255                   1992.
 MP_Sync                74
 MP_Alltoall          1578               14119626.
 MP_SendRecv           252                  14172.
 MP_ISendRecv        17892                 113680.
 MP_Wait             40068
 MP_ISend            20736                 340405.
 MP_IRecv            20736                 340405.
 MP_Recv               308                2460160.
 MP_Write_All            3                1540656.
 -------------------------------------------------------------------------------


 -------------------------------------------------------------------------------
 -                                                                             -
 -                           R E F E R E N C E S                               -
 -                                                                             -
 -------------------------------------------------------------------------------
 
 CP2K version 2022.1, the CP2K developers group (2022).
 CP2K is freely available from https://www.cp2k.org/ .

 Kuehne,Thomas D.; Iannuzzi,Marcella; Del Ben,Mauro;
 Rybkin,Vladimir V.; Seewald,Patrick; Stein,Frederick; Laino,Teodoro;
 Khaliullin,Rustam Z.; Schuett,Ole; Schiffmann,Florian; Golze,Dorothea;
 Wilhelm,Jan; Chulkov,Sergey; Bani-Hashemian,Mohammad Hossein;
 Weber,Valery; Borstnik,Urban; Taillefumier,Mathieu;
 Jakobovits,Alice Shoshana; Lazzaro,Alfio; Pabst,Hans; Mueller,Tiziano;
 Schade,Robert; Guidon,Manuel; Andermatt,Samuel; Holmberg,Nico;
 Schenter,Gregory K.; Hehn,Anna; Bussy,Augustin; Belleflamme,Fabian;
 Tabacchi,Gloria; Gloess,Andreas; Lass,Michael; Bethune,Iain;
 Mundy,Christopher J.; Plessl,Christian; Watkins,Matt;
 VandeVondele,Joost; Krack,Matthias; Hutter,Juerg. 
 The Journal of Chemical Physics, 152 (19), (2020). 
 CP2K: An electronic structure and molecular dynamics software package -
 Quickstep: Efficient and accurate electronic structure calculations.
 https://doi.org/10.1063/5.0007045

 Goerigk, Lars; Hansen, Andreas; Bauer, Christoph; Ehrlich, Stephan;
 Najibi, Asim; Grimme, Stefan. , 19 (48), (2017). 
 A look at the density functional theory zoo with the advanced GMTKN55 database
 for general main group thermochemistry, kinetics and noncovalent interactions.
 https://doi.org/10.1039/C7CP04913G

 Schuett, Ole; Messmer, Peter; Hutter, Juerg; VandeVondele, Joost. 
 Electronic Structure Calculations on Graphics Processing Units, John
 Wiley & Sons, Ltd, 173-190 (2016). 
 GPU-Accelerated Sparse Matrix-Matrix Multiplication for
 Linear Scaling Density Functional Theory.
 https://doi.org/10.1002/9781118670712.ch8

 Heinecke, A; Henry, G; Hutchinson, M; Pabst, H. 
 Proceedings of Intl. Supercomputing Conference, 981-991 (2016). 
 LIBXSMM: Accelerating Small Matrix Multiplications
 by Runtime Code Generation.
 https://doi.org/10.1109/SC.2016.83

 Borstnik, U; VandeVondele, J; Weber, V; Hutter, J. 
 PARALLEL COMPUTING, 40 (5-6), 47-58 (2014). 
 Sparse matrix multiplication: The distributed block-compressed sparse
 row library.
 https://doi.org/10.1016/j.parco.2014.03.012

 Hutter, J; Iannuzzi, M; Schiffmann, F; VandeVondele, J. 
 WIREs Comput Mol Sci., 4 (1), 15-25 (2014). 
 CP2K: atomistic simulations of condensed matter systems.
 https://doi.org/10.1002/wcms.1159

 Marek, A; Blum, V; Johanni, R; Havu, V; Lang, B; Auckenthaler, T;
 Heinecke, A; Bungartz, H; Lederer, H. 
 Journal of Physics: Condensed Matter, 26 (21), (2014). 
 The ELPA library: scalable parallel eigenvalue solutions for
 electronic structure
 theory and computational science.
 https://doi.org/10.1088/0953-8984/26/21/213201

 Grimme, S; Ehrlich, S; Goerigk, L. 
 JOURNAL OF COMPUTATIONAL CHEMISTRY, 32, 1456 (2011). 
 Effect of the damping function in dispersion corrected density functional theory.
 https://doi.org/10.1002/jcc.21759

 Grimme, S; Antony, J; Ehrlich, S; Krieg, H. 
 JOURNAL OF CHEMICAL PHYSICS, 132 (15), 154104 (2010). 
 A consistent and accurate ab initio parametrization of density
 functional dispersion correction (DFT-D) for the 94 elements H-Pu.
 https://doi.org/10.1063/1.3382344

 VandeVondele, J; Hutter, J. 
 JOURNAL OF CHEMICAL PHYSICS, 127 (11), 114105 (2007). 
 Gaussian basis sets for accurate calculations on molecular systems in
 gas and condensed phases.
 https://doi.org/10.1063/1.2770708

 Krack, M. 
 THEORETICAL CHEMISTRY ACCOUNTS, 114 (1-3), 145-152 (2005). 
 Pseudopotentials for H to Kr optimized for gradient-corrected
 exchange-correlation functionals.
 https://doi.org/10.1007/s00214-005-0655-y

 VandeVondele, J; Krack, M; Mohamed, F; Parrinello, M; Chassaing, T;
 Hutter, J. COMPUTER PHYSICS COMMUNICATIONS, 167 (2), 103-128 (2005). 
 QUICKSTEP: Fast and accurate density functional calculations using a
 mixed Gaussian and plane waves approach.
 https://doi.org/10.1016/j.cpc.2004.12.014

 Frigo, M; Johnson, SG. 
 PROCEEDINGS OF THE IEEE, 93 (2), 216-231 (2005). 
 The design and implementation of FFTW3.
 https://doi.org/10.1109/JPROC.2004.840301

 Hartwigsen, C; Goedecker, S; Hutter, J. 
 PHYSICAL REVIEW B, 58 (7), 3641-3662 (1998). 
 Relativistic separable dual-space Gaussian pseudopotentials from H to Rn.
 https://doi.org/10.1103/PhysRevB.58.3641

 Lippert, G; Hutter, J; Parrinello, M. 
 MOLECULAR PHYSICS, 92 (3), 477-487 (1997). 
 A hybrid Gaussian and plane wave density functional scheme.
 https://doi.org/10.1080/002689797170220

 Perdew, JP; Burke, K; Ernzerhof, M. 
 PHYSICAL REVIEW LETTERS, 77 (18), 3865-3868 (1996). 
 Generalized gradient approximation made simple.
 https://doi.org/10.1103/PhysRevLett.77.3865

 Goedecker, S; Teter, M; Hutter, J. 
 PHYSICAL REVIEW B, 54 (3), 1703-1710 (1996). 
 Separable dual-space Gaussian pseudopotentials.
 https://doi.org/10.1103/PhysRevB.54.1703


 -------------------------------------------------------------------------------
 -                                                                             -
 -                                T I M I N G                                  -
 -                                                                             -
 -------------------------------------------------------------------------------
 SUBROUTINE                       CALLS  ASD         SELF TIME        TOTAL TIME
                                MAXIMUM       AVERAGE  MAXIMUM  AVERAGE  MAXIMUM
 CP2K                                 1  1.0    0.025    0.039  841.249  841.251
 qs_forces                            1  2.0    0.002    0.003  840.858  840.859
 qs_energies                          1  3.0    0.000    0.000  828.322  828.333
 scf_env_do_scf                       1  4.0    0.000    0.000  819.912  820.148
 scf_env_do_scf_inner_loop           70  5.0    0.004    0.010  819.912  820.148
 qs_scf_new_mos                      70  6.0    0.004    0.012  333.660  334.208
 eigensolver                         70  7.0    0.006    0.009  310.113  310.526
 rebuild_ks_matrix                   71  7.0    0.000    0.000  260.344  260.387
 qs_ks_build_kohn_sham_matrix        71  8.0    0.011    0.012  260.344  260.387
 qs_ks_update_qs_env                 70  6.0    0.001    0.001  252.303  252.346
 qs_rho_update_rho_low               71  6.0    0.001    0.001  221.860  221.887
 calculate_rho_elec                  71  7.0    0.167    0.208  221.860  221.886
 sum_up_and_integrate                71  9.0    0.300    0.388  218.746  218.791
 integrate_v_rspace                  71 10.0    0.002    0.003  218.446  218.523
 grid_collocate_task_list            71  8.0  194.873  200.287  194.873  200.287
 grid_integrate_task_list            71 11.0  190.282  195.940  190.282  195.940
 cp_fm_diag_elpa                     70  8.0    0.001    0.001  181.991  182.435
 cp_fm_diag_elpa_base                70  9.0  179.158  179.794  181.672  181.746
 cp_fm_triangular_multiply          210  8.0  125.524  127.194  125.524  127.194
 pw_transfer                       1420 10.9    0.101    0.140   39.307   40.166
 fft_wrap_pw1pw2                   1278 12.0    0.012    0.016   38.861   39.687
 rs_pw_transfer                     572 10.5    0.006    0.009   34.505   38.966
 fft_wrap_pw1pw2_200                852 13.3    3.490    3.809   37.408   38.126
 qs_vxc_create                       71  9.0    0.002    0.003   36.644   36.847
 xc_vxc_pw_create                    71 10.0    0.654    0.691   36.642   36.845
 fft3d_ps                          1278 14.0   14.085   15.816   28.700   29.743
 density_rs2pw                       71  8.0    0.005    0.005   24.714   28.980
 xc_pw_derive                       426 12.0    0.007    0.008   23.312   24.427
 xc_rho_set_and_dset_create          71 11.0    0.347    0.370   19.753   21.095
 potential_pw2rs                     71 11.0    0.027    0.032   20.426   20.498
 mp_waitany                       20736 12.4   14.838   19.803   14.838   19.803
 rs_pw_transfer_RS2PW_200            73 10.0    4.614    5.295   13.749   18.050
 cp_dbcsr_plus_fm_fm_t_native        71  8.0    0.003    0.007   17.124   17.760
 calculate_dm_sparse                 70  7.0    0.022    0.029   17.150   17.746
 -------------------------------------------------------------------------------

 The number of warnings for this run is : 1
 
 -------------------------------------------------------------------------------
  **** **** ******  **  PROGRAM ENDED AT                 2023-11-26 19:10:29.734
 ***** ** ***  *** **   PROGRAM RAN ON                                     cu054
 **    ****   ******    PROGRAM RAN BY                                     jxzhu
 ***** **    ** ** **   PROGRAM PROCESS ID                                 60666
  **** **  *******  **  PROGRAM STOPPED IN /public/home/jxzhu/tmp_calc/af2075565
                                           805657d94fa4669dad6f4b174b0a4fb/calc/
                                           002100.000/pbc
