 DBCSR| CPU Multiplication driver                                           XSMM
 DBCSR| Multrec recursion limit                                              512
 DBCSR| Multiplication stack size                                           1000
 DBCSR| Maximum elements for images                                    UNLIMITED
 DBCSR| Multiplicative factor virtual images                                   1
 DBCSR| Use multiplication densification                                       T
 DBCSR| Multiplication size stacks                                             3
 DBCSR| Use memory pool for CPU allocation                                     F
 DBCSR| Number of 3D layers                                               SINGLE
 DBCSR| Use MPI memory allocation                                              F
 DBCSR| Use RMA algorithm                                                      F
 DBCSR| Use Communication thread                                               T
 DBCSR| Communication thread load                                             87
 DBCSR| MPI: My node id                                                        0
 DBCSR| MPI: Number of nodes                                                 128
 DBCSR| OMP: Current number of threads                                         1
 DBCSR| OMP: Max number of threads                                             1
 DBCSR| Split modifier for TAS multiplication algorithm                  1.0E+00


  **** **** ******  **  PROGRAM STARTED AT               2023-12-02 06:48:59.949
 ***** ** ***  *** **   PROGRAM STARTED ON                                 cu002
 **    ****   ******    PROGRAM STARTED BY                                 jxzhu
 ***** **    ** ** **   PROGRAM PROCESS ID                                 40450
  **** **  *******  **  PROGRAM STARTED IN /public/home/jxzhu/tmp_calc/a13ab029d
                                           6f4925c986c0e0dd84fb59090fab56b/calc/
                                           000900.000/search_hi.000000

 CP2K| version string:                                       CP2K version 2022.1
 CP2K| source code revision number:                                  git:2caeb6f
 CP2K| cp2kflags: omp libint fftw3 libxc elpa parallel mpi3 scalapack cosma xsmm
 CP2K|             plumed2 spglib mkl sirius libvori libbqb
 CP2K| is freely available from                            https://www.cp2k.org/
 CP2K| Program compiled at                           Mon Jul 3 17:37:06 CST 2023
 CP2K| Program compiled on                                                 mu003
 CP2K| Program compiled for                                                local
 CP2K| Data directory path                             /public/home/jxzhu/basis/
 CP2K| Input file name                                                 input.inp
 
 GLOBAL| Force Environment number                                              1
 GLOBAL| Basis set file name                                        BASIS_MOLOPT
 GLOBAL| Potential file name                                      GTH_POTENTIALS
 GLOBAL| MM Potential file name                                     MM_POTENTIAL
 GLOBAL| Coordinate file name                                          coord.xyz
 GLOBAL| Method name                                                        CP2K
 GLOBAL| Project name                                                       cp2k
 GLOBAL| Run type                                                   ENERGY_FORCE
 GLOBAL| FFT library                                                       FFTW3
 GLOBAL| Diagonalization library                                            ELPA
 GLOBAL| Minimum number of eigenvectors for ELPA usage                        16
 GLOBAL| Orthonormality check for eigenvectors                          DISABLED
 GLOBAL| Matrix multiplication library                                     COSMA
 GLOBAL| All-to-all communication in single precision                          F
 GLOBAL| FFTs using library dependent lengths                                  T
 GLOBAL| Grid backend                                                       AUTO
 GLOBAL| Global print level                                               MEDIUM
 GLOBAL| MPI I/O enabled                                                       T
 GLOBAL| Total number of message passing processes                           128
 GLOBAL| Number of threads for this process                                    1
 GLOBAL| This output is from process                                           0
 GLOBAL| Stack size for threads created by OpenMP (OMP_STACKSIZE)        default
 GLOBAL| CPU model name                 Intel(R) Xeon(R) Gold 6338 CPU @ 2.00GHz
 GLOBAL| CPUID                                                              1003

 MEMORY| system memory details [Kb]
 MEMORY|                        rank 0           min           max       average
 MEMORY| MemTotal            263619172     263619172     263619172     263619172
 MEMORY| MemFree             215546556     177824884     215548416     196685977
 MEMORY| Buffers                    36            36            36            36
 MEMORY| Cached                1425732       1088292       1425732       1257012
 MEMORY| Slab                  1510616       1510616      28282732      14896674
 MEMORY| SReclaimable           237172        237172        237836        237504
 MEMORY| MemLikelyFree       217209496     179151048     217211356     198180529


 *** Fundamental physical constants (SI units) ***

 *** Literature: B. J. Mohr and B. N. Taylor,
 ***             CODATA recommended values of the fundamental physical
 ***             constants: 2006, Web Version 5.1
 ***             http://physics.nist.gov/constants

 Speed of light in vacuum [m/s]                             2.99792458000000E+08
 Magnetic constant or permeability of vacuum [N/A**2]       1.25663706143592E-06
 Electric constant or permittivity of vacuum [F/m]          8.85418781762039E-12
 Planck constant (h) [J*s]                                  6.62606896000000E-34
 Planck constant (h-bar) [J*s]                              1.05457162825177E-34
 Elementary charge [C]                                      1.60217648700000E-19
 Electron mass [kg]                                         9.10938215000000E-31
 Electron g factor [ ]                                     -2.00231930436220E+00
 Proton mass [kg]                                           1.67262163700000E-27
 Fine-structure constant                                    7.29735253760000E-03
 Rydberg constant [1/m]                                     1.09737315685270E+07
 Avogadro constant [1/mol]                                  6.02214179000000E+23
 Boltzmann constant [J/K]                                   1.38065040000000E-23
 Atomic mass unit [kg]                                      1.66053878200000E-27
 Bohr radius [m]                                            5.29177208590000E-11

 *** Conversion factors ***

 [u] -> [a.u.]                                              1.82288848426455E+03
 [Angstrom] -> [Bohr] = [a.u.]                              1.88972613288564E+00
 [a.u.] = [Bohr] -> [Angstrom]                              5.29177208590000E-01
 [a.u.] -> [s]                                              2.41888432650478E-17
 [a.u.] -> [fs]                                             2.41888432650478E-02
 [a.u.] -> [J]                                              4.35974393937059E-18
 [a.u.] -> [N]                                              8.23872205491840E-08
 [a.u.] -> [K]                                              3.15774647902944E+05
 [a.u.] -> [kJ/mol]                                         2.62549961709828E+03
 [a.u.] -> [kcal/mol]                                       6.27509468713739E+02
 [a.u.] -> [Pa]                                             2.94210107994716E+13
 [a.u.] -> [bar]                                            2.94210107994716E+08
 [a.u.] -> [atm]                                            2.90362800883016E+08
 [a.u.] -> [eV]                                             2.72113838565563E+01
 [a.u.] -> [Hz]                                             6.57968392072181E+15
 [a.u.] -> [1/cm] (wave numbers)                            2.19474631370540E+05
 [a.u./Bohr**2] -> [1/cm]                                   5.14048714338585E+03
 

 CELL_TOP| Volume [angstrom^3]:                                     17614.982639
 CELL_TOP| Vector a [angstrom    16.869     0.000     0.000   |a| =    16.869000
 CELL_TOP| Vector b [angstrom    -8.434    14.609     0.000   |b| =    16.869015
 CELL_TOP| Vector c [angstrom     0.000     0.000    71.478   |c| =    71.478000
 CELL_TOP| Angle (b,c), alpha [degree]:                                90.000000
 CELL_TOP| Angle (a,c), beta  [degree]:                                90.000000
 CELL_TOP| Angle (a,b), gamma [degree]:                               119.999970
 CELL_TOP| Numerically orthorhombic:                                          NO
 
 GENERATE|  Preliminary Number of Bonds generated:                             0
 GENERATE|  Achieved consistency in connectivity generation.

 CELL| Volume [angstrom^3]:                                         17614.982639
 CELL| Vector a [angstrom]:      16.869     0.000     0.000   |a| =    16.869000
 CELL| Vector b [angstrom]:      -8.434    14.609     0.000   |b| =    16.869015
 CELL| Vector c [angstrom]:       0.000     0.000    71.478   |c| =    71.478000
 CELL| Angle (b,c), alpha [degree]:                                    90.000000
 CELL| Angle (a,c), beta  [degree]:                                    90.000000
 CELL| Angle (a,b), gamma [degree]:                                   119.999970
 CELL| Numerically orthorhombic:                                              NO

 CELL_REF| Volume [angstrom^3]:                                     17614.982639
 CELL_REF| Vector a [angstrom    16.869     0.000     0.000   |a| =    16.869000
 CELL_REF| Vector b [angstrom    -8.434    14.609     0.000   |b| =    16.869015
 CELL_REF| Vector c [angstrom     0.000     0.000    71.478   |c| =    71.478000
 CELL_REF| Angle (b,c), alpha [degree]:                                90.000000
 CELL_REF| Angle (a,c), beta  [degree]:                                90.000000
 CELL_REF| Angle (a,b), gamma [degree]:                               119.999970
 CELL_REF| Numerically orthorhombic:                                          NO

 *******************************************************************************
 *******************************************************************************
 **                                                                           **
 **     #####                         ##              ##                      **
 **    ##   ##            ##          ##              ##                      **
 **   ##     ##                       ##            ######                    **
 **   ##     ##  ##   ##  ##   #####  ##  ##   ####   ##    #####    #####    **
 **   ##     ##  ##   ##  ##  ##      ## ##   ##      ##   ##   ##  ##   ##   **
 **   ##  ## ##  ##   ##  ##  ##      ####     ###    ##   ######   ######    **
 **    ##  ###   ##   ##  ##  ##      ## ##      ##   ##   ##       ##        **
 **     #######   #####   ##   #####  ##  ##  ####    ##    #####   ##        **
 **           ##                                                    ##        **
 **                                                                           **
 **                                                ... make the atoms dance   **
 **                                                                           **
 **            Copyright (C) by CP2K developers group (2000-2022)             **
 **                      J. Chem. Phys. 152, 194103 (2020)                    **
 **                                                                           **
 *******************************************************************************

 DFT| Spin restricted Kohn-Sham (RKS) calculation                            RKS
 DFT| Multiplicity                                                             1
 DFT| Number of spin states                                                    1
 DFT| Charge                                                                   0
 DFT| Self-interaction correction (SIC)                                       NO
 DFT| Cutoffs: density                                              1.000000E-10
 DFT|          gradient                                             1.000000E-10
 DFT|          tau                                                  1.000000E-10
 DFT|          cutoff_smoothing_range                               0.000000E+00
 DFT| XC density smoothing                                                  NONE
 DFT| XC derivatives                                                          PW

 FUNCTIONAL| PBE:
 FUNCTIONAL| J.P.Perdew, K.Burke, M.Ernzerhof, Phys. Rev. Letter, vol. 77, n 18,
 FUNCTIONAL|  pp. 3865-3868, (1996){spin unpolarized}                           

 vdW POTENTIAL|                                                   Pair Potential
 vdW POTENTIAL|          DFT-D3 (Version 3.1)
 vdW POTENTIAL|          Potential Form: S. Grimme et al, JCP 132: 154104 (2010)
 vdW POTENTIAL|          Zero Damping
 vdW POTENTIAL|          Cutoff Radius [Bohr]:                             20.00
 vdW POTENTIAL|          s6 Scaling Factor:                               1.0000
 vdW POTENTIAL|          sr6 Scaling Factor:                              1.2170
 vdW POTENTIAL|          s8 Scaling Factor:                               0.7220
 vdW POTENTIAL|          Cutoff for CN calculation:                   0.1000E-05

 QS| Method:                                                                 GPW
 QS| Density plane wave grid type                        NON-SPHERICAL FULLSPACE
 QS| Number of grid levels:                                                    4
 QS| Density cutoff [a.u.]:                                                200.0
 QS| Multi grid cutoff [a.u.]: 1) grid level                               200.0
 QS|                           2) grid level                                66.7
 QS|                           3) grid level                                22.2
 QS|                           4) grid level                                 7.4
 QS| Grid level progression factor:                                          3.0
 QS| Relative density cutoff [a.u.]:                                        20.0
 QS| Interaction thresholds: eps_pgf_orb:                                3.2E-07
 QS|                         eps_filter_matrix:                          0.0E+00
 QS|                         eps_core_charge:                            1.0E-15
 QS|                         eps_rho_gspace:                             1.0E-13
 QS|                         eps_rho_rspace:                             1.0E-13
 QS|                         eps_gvg_rspace:                             3.2E-07
 QS|                         eps_ppl:                                    1.0E-02
 QS|                         eps_ppnl:                                   3.2E-09


 ATOMIC KIND INFORMATION

  1. Atomic kind: O                                     Number of atoms:     103

     Orbital Basis Set                                        DZVP-MOLOPT-SR-GTH

       Number of orbital shell sets:                                           1
       Number of orbital shells:                                               5
       Number of primitive Cartesian functions:                                5
       Number of Cartesian basis functions:                                   14
       Number of spherical basis functions:                                   13
       Norm type:                                                              2

       Normalised Cartesian orbitals:

                        Set   Shell   Orbital            Exponent    Coefficient

                          1       1    2s               10.389228       0.396646
                                                         3.849621       0.208811
                                                         1.388401      -0.301641
                                                         0.496955      -0.274061
                                                         0.162492      -0.033677

                          1       2    3s               10.389228       0.303673
                                                         3.849621       0.240943
                                                         1.388401      -0.313066
                                                         0.496955      -0.043055
                                                         0.162492       0.213991

                          1       3    3px              10.389228      -1.530415
                                                         3.849621      -1.371928
                                                         1.388401      -0.761951
                                                         0.496955      -0.253695
                                                         0.162492      -0.035541
                          1       3    3py              10.389228      -1.530415
                                                         3.849621      -1.371928
                                                         1.388401      -0.761951
                                                         0.496955      -0.253695
                                                         0.162492      -0.035541
                          1       3    3pz              10.389228      -1.530415
                                                         3.849621      -1.371928
                                                         1.388401      -0.761951
                                                         0.496955      -0.253695
                                                         0.162492      -0.035541

                          1       4    4px              10.389228      -0.565392
                                                         3.849621      -0.038231
                                                         1.388401      -0.382373
                                                         0.496955       0.179070
                                                         0.162492       0.122714
                          1       4    4py              10.389228      -0.565392
                                                         3.849621      -0.038231
                                                         1.388401      -0.382373
                                                         0.496955       0.179070
                                                         0.162492       0.122714
                          1       4    4pz              10.389228      -0.565392
                                                         3.849621      -0.038231
                                                         1.388401      -0.382373
                                                         0.496955       0.179070
                                                         0.162492       0.122714

                          1       5    4dx2             10.389228       1.867377
                                                         3.849621       0.670994
                                                         1.388401       1.353441
                                                         0.496955       0.273538
                                                         0.162492       0.006620
                          1       5    4dxy             10.389228       3.234392
                                                         3.849621       1.162195
                                                         1.388401       2.344229
                                                         0.496955       0.473781
                                                         0.162492       0.011466
                          1       5    4dxz             10.389228       3.234392
                                                         3.849621       1.162195
                                                         1.388401       2.344229
                                                         0.496955       0.473781
                                                         0.162492       0.011466
                          1       5    4dy2             10.389228       1.867377
                                                         3.849621       0.670994
                                                         1.388401       1.353441
                                                         0.496955       0.273538
                                                         0.162492       0.006620
                          1       5    4dyz             10.389228       3.234392
                                                         3.849621       1.162195
                                                         1.388401       2.344229
                                                         0.496955       0.473781
                                                         0.162492       0.011466
                          1       5    4dz2             10.389228       1.867377
                                                         3.849621       0.670994
                                                         1.388401       1.353441
                                                         0.496955       0.273538
                                                         0.162492       0.006620

       Atomic covalent radius [Angstrom]:                                  0.730

       Atomic van der Waals radius [Angstrom]:                             1.520

     GTH Potential information for                                    GTH-PBE-q6

       Description:                       Goedecker-Teter-Hutter pseudopotential
                                           Goedecker et al., PRB 54, 1703 (1996)
                                          Hartwigsen et al., PRB 58, 3641 (1998)
                                                      Krack, TCA 114, 145 (2005)

       Gaussian exponent of the core charge distribution:               8.360253
       Electronic configuration (s p d ...):                               2   4

       Parameters of the local part of the GTH pseudopotential:

                          rloc        C1          C2          C3          C4
                        0.244554  -16.667215    2.487311

       Parameters of the non-local part of the GTH pseudopotential:

                   l      r(l)      h(i,j,l)

                   0    0.220956   18.337458
                   1    0.211332

  2. Atomic kind: H                                     Number of atoms:     206

     Orbital Basis Set                                        DZVP-MOLOPT-SR-GTH

       Number of orbital shell sets:                                           1
       Number of orbital shells:                                               3
       Number of primitive Cartesian functions:                                5
       Number of Cartesian basis functions:                                    5
       Number of spherical basis functions:                                    5
       Norm type:                                                              2

       Normalised Cartesian orbitals:

                        Set   Shell   Orbital            Exponent    Coefficient

                          1       1    2s               10.068468      -0.133023
                                                         2.680223      -0.177618
                                                         0.791502      -0.258419
                                                         0.239116      -0.107525
                                                         0.082193      -0.014019

                          1       2    3s               10.068468       0.344673
                                                         2.680223       1.819821
                                                         0.791502      -0.999069
                                                         0.239116       0.017430
                                                         0.082193       0.082660

                          1       3    3px              10.068468       0.155326
                                                         2.680223       0.367157
                                                         0.791502       0.311480
                                                         0.239116       0.080105
                                                         0.082193       0.033440
                          1       3    3py              10.068468       0.155326
                                                         2.680223       0.367157
                                                         0.791502       0.311480
                                                         0.239116       0.080105
                                                         0.082193       0.033440
                          1       3    3pz              10.068468       0.155326
                                                         2.680223       0.367157
                                                         0.791502       0.311480
                                                         0.239116       0.080105
                                                         0.082193       0.033440

       Atomic covalent radius [Angstrom]:                                  0.320

       Atomic van der Waals radius [Angstrom]:                             1.090

     GTH Potential information for                                    GTH-PBE-q1

       Description:                       Goedecker-Teter-Hutter pseudopotential
                                           Goedecker et al., PRB 54, 1703 (1996)
                                          Hartwigsen et al., PRB 58, 3641 (1998)
                                                      Krack, TCA 114, 145 (2005)

       Gaussian exponent of the core charge distribution:              12.500000
       Electronic configuration (s p d ...):                                   1

       Parameters of the local part of the GTH pseudopotential:

                          rloc        C1          C2          C3          C4
                        0.200000   -4.178900    0.724463

  3. Atomic kind: Pt                                    Number of atoms:     216

     Orbital Basis Set                      DZVP-A5-Q10-323-MOL-T1-DERIVED_SET-1

       Number of orbital shell sets:                                           1
       Number of orbital shells:                                               6
       Number of primitive Cartesian functions:                                5
       Number of Cartesian basis functions:                                   23
       Number of spherical basis functions:                                   20
       Norm type:                                                              2

       Normalised Cartesian orbitals:

                        Set   Shell   Orbital            Exponent    Coefficient

                          1       1    2s                2.521825       0.177473
                                                         1.453920      -0.063399
                                                         0.614053      -0.407089
                                                         0.232656       0.262254
                                                         0.074788       0.047371

                          1       2    3s                2.521825      -0.049056
                                                         1.453920       0.044904
                                                         0.614053      -0.009756
                                                         0.232656      -0.144709
                                                         0.074788       0.144085

                          1       3    3px               2.521825      -0.317572
                                                         1.453920       0.534826
                                                         0.614053      -0.489458
                                                         0.232656       0.245631
                                                         0.074788       0.018221
                          1       3    3py               2.521825      -0.317572
                                                         1.453920       0.534826
                                                         0.614053      -0.489458
                                                         0.232656       0.245631
                                                         0.074788       0.018221
                          1       3    3pz               2.521825      -0.317572
                                                         1.453920       0.534826
                                                         0.614053      -0.489458
                                                         0.232656       0.245631
                                                         0.074788       0.018221

                          1       4    4dx2              2.521825       3.008522
                                                         1.453920      -1.224251
                                                         0.614053       0.225691
                                                         0.232656       0.125144
                                                         0.074788      -0.015348
                          1       4    4dxy              2.521825       5.210912
                                                         1.453920      -2.120465
                                                         0.614053       0.390909
                                                         0.232656       0.216756
                                                         0.074788      -0.026584
                          1       4    4dxz              2.521825       5.210912
                                                         1.453920      -2.120465
                                                         0.614053       0.390909
                                                         0.232656       0.216756
                                                         0.074788      -0.026584
                          1       4    4dy2              2.521825       3.008522
                                                         1.453920      -1.224251
                                                         0.614053       0.225691
                                                         0.232656       0.125144
                                                         0.074788      -0.015348
                          1       4    4dyz              2.521825       5.210912
                                                         1.453920      -2.120465
                                                         0.614053       0.390909
                                                         0.232656       0.216756
                                                         0.074788      -0.026584
                          1       4    4dz2              2.521825       3.008522
                                                         1.453920      -1.224251
                                                         0.614053       0.225691
                                                         0.232656       0.125144
                                                         0.074788      -0.015348

                          1       5    5dx2              2.521825       0.698026
                                                         1.453920      -1.511486
                                                         0.614053      -0.335394
                                                         0.232656      -0.025564
                                                         0.074788      -0.002699
                          1       5    5dxy              2.521825       1.209017
                                                         1.453920      -2.617970
                                                         0.614053      -0.580920
                                                         0.232656      -0.044277
                                                         0.074788      -0.004674
                          1       5    5dxz              2.521825       1.209017
                                                         1.453920      -2.617970
                                                         0.614053      -0.580920
                                                         0.232656      -0.044277
                                                         0.074788      -0.004674
                          1       5    5dy2              2.521825       0.698026
                                                         1.453920      -1.511486
                                                         0.614053      -0.335394
                                                         0.232656      -0.025564
                                                         0.074788      -0.002699
                          1       5    5dyz              2.521825       1.209017
                                                         1.453920      -2.617970
                                                         0.614053      -0.580920
                                                         0.232656      -0.044277
                                                         0.074788      -0.004674
                          1       5    5dz2              2.521825       0.698026
                                                         1.453920      -1.511486
                                                         0.614053      -0.335394
                                                         0.232656      -0.025564
                                                         0.074788      -0.002699

                          1       6    6dx2              2.521825       0.831079
                                                         1.453920      -0.709226
                                                         0.614053      -0.137351
                                                         0.232656       0.068642
                                                         0.074788       0.011745
                          1       6    6dxy              2.521825       1.439472
                                                         1.453920      -1.228415
                                                         0.614053      -0.237899
                                                         0.232656       0.118891
                                                         0.074788       0.020343
                          1       6    6dxz              2.521825       1.439472
                                                         1.453920      -1.228415
                                                         0.614053      -0.237899
                                                         0.232656       0.118891
                                                         0.074788       0.020343
                          1       6    6dy2              2.521825       0.831079
                                                         1.453920      -0.709226
                                                         0.614053      -0.137351
                                                         0.232656       0.068642
                                                         0.074788       0.011745
                          1       6    6dyz              2.521825       1.439472
                                                         1.453920      -1.228415
                                                         0.614053      -0.237899
                                                         0.232656       0.118891
                                                         0.074788       0.020343
                          1       6    6dz2              2.521825       0.831079
                                                         1.453920      -0.709226
                                                         0.614053      -0.137351
                                                         0.232656       0.068642
                                                         0.074788       0.011745

       Atomic covalent radius [Angstrom]:                                  1.300

       Atomic van der Waals radius [Angstrom]:                             1.750

     GTH Potential information for                                   GTH-PBE-q10

       Description:                       Goedecker-Teter-Hutter pseudopotential
                                           Goedecker et al., PRB 54, 1703 (1996)
                                          Hartwigsen et al., PRB 58, 3641 (1998)
                                                      Krack, TCA 114, 145 (2005)

       Gaussian exponent of the core charge distribution:               1.317676
       Electronic configuration (s p d ...):                           1   0   9

       Parameters of the local part of the GTH pseudopotential:

                          rloc        C1          C2          C3          C4
                        0.616000   11.313635

       Parameters of the non-local part of the GTH pseudopotential:

                   l      r(l)      h(i,j,l)

                   0    0.550904    4.733491   -1.784594
                                   -1.784594    2.303901
                   1    0.674138    2.534798   -1.778066
                                   -1.778066    2.103836
                   2    0.457392   -7.264011    2.558665
                                    2.558665   -2.901253


 MOLECULE KIND INFORMATION


 All atoms are their own molecule, skipping detailed information


 TOTAL NUMBERS AND MAXIMUM NUMBERS

  Total number of            - Atomic kinds:                                   3
                             - Atoms:                                        525
                             - Shell sets:                                   525
                             - Shells:                                      2429
                             - Primitive Cartesian functions:               2625
                             - Cartesian basis functions:                   7440
                             - Spherical basis functions:                   6689

  Maximum angular momentum of- Orbital basis functions:                        2
                             - Local part of the GTH pseudopotential:          2
                             - Non-local part of the GTH pseudopotential:      4


 MODULE QUICKSTEP:  ATOMIC COORDINATES IN angstrom

 Atom  Kind  Element       X           Y           Z          Z(eff)       Mass
    1   1 O    8       8.270000   -5.880000   33.928001       6.0000     15.9994
    2   2 H    1       7.350000   -6.060000   33.668001       1.0000      1.0079
    3   2 H    1       8.650001   -6.780000   34.107999       1.0000      1.0079
    4   1 O    8      -8.020000  -14.410001   39.867999       6.0000     15.9994
    5   2 H    1      -8.050001  -14.170000   40.847999       1.0000      1.0079
    6   2 H    1      -8.570001  -13.770000   39.308000       1.0000      1.0079
    7   1 O    8      11.130000   12.890000   39.298000       6.0000     15.9994
    8   2 H    1      11.900001   13.250000   38.638000       1.0000      1.0079
    9   2 H    1      11.420001   11.980001   39.328000       1.0000      1.0079
   10   1 O    8      -1.590000   -4.000000   34.298000       6.0000     15.9994
   11   2 H    1      -1.990000   -4.910000   34.337999       1.0000      1.0079
   12   2 H    1      -0.970000   -4.010000   35.148000       1.0000      1.0079
   13   1 O    8      -7.790000  -21.680002   32.167999       6.0000     15.9994
   14   2 H    1      -7.900000  -20.700001   32.177999       1.0000      1.0079
   15   2 H    1      -7.240000  -21.990002   32.967998       1.0000      1.0079
   16   1 O    8      11.120001   -4.340000   31.347999       6.0000     15.9994
   17   2 H    1      11.390000   -5.110001   30.628000       1.0000      1.0079
   18   2 H    1      11.620001   -4.450000   32.207998       1.0000      1.0079
   19   1 O    8     -13.240002    3.510000   34.317998       6.0000     15.9994
   20   2 H    1     -13.120001    2.610000   33.958001       1.0000      1.0079
   21   2 H    1     -12.490001    3.940000   33.878000       1.0000      1.0079
   22   1 O    8      -0.470000  -10.930000   33.498000       6.0000     15.9994
   23   2 H    1      -1.460000  -10.780001   33.218000       1.0000      1.0079
   24   2 H    1      -0.610000  -11.590000   34.177999       1.0000      1.0079
   25   1 O    8      17.230000    2.160000   36.197999       6.0000     15.9994
   26   2 H    1      16.590000    1.940000   35.537999       1.0000      1.0079
   27   2 H    1      16.650002    2.220000   37.018001       1.0000      1.0079
   28   1 O    8     -18.060001   28.570002   36.378000       6.0000     15.9994
   29   2 H    1     -18.960001   28.710001   36.787999       1.0000      1.0079
   30   2 H    1      -1.140000   29.340002   35.808000       1.0000      1.0079
   31   1 O    8     -12.010001   19.060001   30.537998       6.0000     15.9994
   32   2 H    1     -11.000000   18.970001   30.337999       1.0000      1.0079
   33   2 H    1     -12.210001   18.650002   31.417999       1.0000      1.0079
   34   1 O    8       4.930000    4.530000   39.477998       6.0000     15.9994
   35   2 H    1       4.870000    4.580000   38.468000       1.0000      1.0079
   36   2 H    1       4.180000    5.110001   39.748000       1.0000      1.0079
   37   1 O    8       1.230000    5.980001   31.017999       6.0000     15.9994
   38   2 H    1       2.130000    5.580000   30.997999       1.0000      1.0079
   39   2 H    1       0.630000    5.320000   30.597999       1.0000      1.0079
   40   1 O    8       6.300001    1.870000   37.678001       6.0000     15.9994
   41   2 H    1       6.820001    2.650000   38.177999       1.0000      1.0079
   42   2 H    1       5.320000    2.090000   37.517999       1.0000      1.0079
   43   1 O    8      -0.990000    2.410000   38.438001       6.0000     15.9994
   44   2 H    1      -1.910000    2.050000   38.308000       1.0000      1.0079
   45   2 H    1      -1.140000    3.340000   38.728000       1.0000      1.0079
   46   1 O    8      -8.360001    9.840000   36.577998       6.0000     15.9994
   47   2 H    1      -8.370000   10.670000   37.188001       1.0000      1.0079
   48   2 H    1      -7.390000    9.590000   36.328000       1.0000      1.0079
   49   1 O    8     -13.380001   11.700001   39.778001       6.0000     15.9994
   50   2 H    1     -22.540001   25.750000   39.588001       1.0000      1.0079
   51   2 H    1     -12.640000   11.110001   39.748000       1.0000      1.0079
   52   1 O    8       0.280000    0.310000   30.667999       6.0000     15.9994
   53   2 H    1      -0.580000    0.740000   30.607999       1.0000      1.0079
   54   2 H    1       0.840000    1.010000   30.218000       1.0000      1.0079
   55   1 O    8     -14.640001   14.640001   31.958000       6.0000     15.9994
   56   2 H    1     -15.080000   13.840000   31.587999       1.0000      1.0079
   57   2 H    1     -15.050001   14.880000   32.837999       1.0000      1.0079
   58   1 O    8       4.100000   -4.480000   34.117997       6.0000     15.9994
   59   2 H    1       3.540000   -3.760000   33.607999       1.0000      1.0079
   60   2 H    1       4.510000   -5.110001   33.487998       1.0000      1.0079
   61   1 O    8      36.110001   -8.600000   38.828000       6.0000     15.9994
   62   2 H    1      35.440002   -8.850000   38.187999       1.0000      1.0079
   63   2 H    1      36.520000   -7.680000   38.537999       1.0000      1.0079
   64   1 O    8     -30.300003    9.550000   37.597999       6.0000     15.9994
   65   2 H    1     -12.870001    9.160001   38.298002       1.0000      1.0079
   66   2 H    1     -14.220000    9.940001   38.068000       1.0000      1.0079
   67   1 O    8       6.940000   19.670002   39.347999       6.0000     15.9994
   68   2 H    1       6.600000   20.250000   38.578000       1.0000      1.0079
   69   2 H    1       6.050000   19.440001   39.778001       1.0000      1.0079
   70   1 O    8      17.790001   -0.300000   33.058000       6.0000     15.9994
   71   2 H    1      18.430000    0.320000   33.357999       1.0000      1.0079
   72   2 H    1      17.570002   -0.180000   32.047998       1.0000      1.0079
   73   1 O    8       8.650001   10.290001   31.977998       6.0000     15.9994
   74   2 H    1       8.140000   10.110001   31.148000       1.0000      1.0079
   75   2 H    1       7.930000   10.390000   32.597999       1.0000      1.0079
   76   1 O    8       6.020000   13.020000   32.988000       6.0000     15.9994
   77   2 H    1       5.380001   12.340001   33.297998       1.0000      1.0079
   78   2 H    1       6.900001   12.570001   33.227998       1.0000      1.0079
   79   1 O    8     -19.170000    5.460000   34.458000       6.0000     15.9994
   80   2 H    1     -18.430000    5.600000   35.117999       1.0000      1.0079
   81   2 H    1     -18.680000    4.740000   33.867999       1.0000      1.0079
   82   1 O    8       5.690000  -21.040001   34.927999       6.0000     15.9994
   83   2 H    1       4.670000  -20.810001   34.947999       1.0000      1.0079
   84   2 H    1       5.940001  -21.639999   35.738000       1.0000      1.0079
   85   1 O    8      10.010000   -7.780001   33.728000       6.0000     15.9994
   86   2 H    1       9.920000   -7.900000   32.767999       1.0000      1.0079
   87   2 H    1       9.740001   -8.650001   34.138000       1.0000      1.0079
   88   1 O    8     -17.040001   -1.860000   29.037999       6.0000     15.9994
   89   2 H    1     -18.050001   -2.020000   29.168001       1.0000      1.0079
   90   2 H    1     -16.850000   -0.930000   29.508001       1.0000      1.0079
   91   1 O    8      25.190001    5.350000   35.757999       6.0000     15.9994
   92   2 H    1      25.240002    4.560000   36.487998       1.0000      1.0079
   93   2 H    1      24.870003    4.770000   34.907998       1.0000      1.0079
   94   1 O    8       3.660000    4.870000   30.337999       6.0000     15.9994
   95   2 H    1       3.210000    3.980000   30.437997       1.0000      1.0079
   96   2 H    1       3.410000    5.130000   29.438001       1.0000      1.0079
   97   1 O    8      -6.040000   16.750000   39.748000       6.0000     15.9994
   98   2 H    1      -6.410000   15.880001   39.807998       1.0000      1.0079
   99   2 H    1      -6.750000   17.440001   39.728000       1.0000      1.0079
  100   1 O    8       2.670000   -6.290000   30.067998       6.0000     15.9994
  101   2 H    1      -4.900000    7.860000   30.097997       1.0000      1.0079
  102   2 H    1       2.520000   -6.270000   29.078000       1.0000      1.0079
  103   1 O    8      12.610001   -3.170000   34.047998       6.0000     15.9994
  104   2 H    1      11.710000   -2.870000   34.147998       1.0000      1.0079
  105   2 H    1      12.540001   -4.080000   34.398000       1.0000      1.0079
  106   1 O    8      13.570002    7.450001   30.058000       6.0000     15.9994
  107   2 H    1      13.890000    7.450001   29.057996       1.0000      1.0079
  108   2 H    1      13.400001    6.450000   30.157998       1.0000      1.0079
  109   1 O    8      23.810001   10.000000   29.777997       6.0000     15.9994
  110   2 H    1      23.010002   10.640000   29.758001       1.0000      1.0079
  111   2 H    1      24.130001   10.070001   28.827997       1.0000      1.0079
  112   1 O    8      20.610001   -4.300000   39.287999       6.0000     15.9994
  113   2 H    1      20.420000   -4.720000   40.128000       1.0000      1.0079
  114   2 H    1      21.610001   -4.270000   39.287999       1.0000      1.0079
  115   1 O    8       8.110001   -1.690000   32.477998       6.0000     15.9994
  116   2 H    1       8.060000   -2.700000   32.337999       1.0000      1.0079
  117   2 H    1       8.280001   -1.340000   31.598001       1.0000      1.0079
  118   1 O    8      31.170002   -7.020000   29.808000       6.0000     15.9994
  119   2 H    1      31.420002   -7.020000   30.777999       1.0000      1.0079
  120   2 H    1      31.720001   -6.280000   29.458001       1.0000      1.0079
  121   1 O    8     -31.280003   26.390001   32.908000       6.0000     15.9994
  122   2 H    1     -15.270000   26.049999   32.567998       1.0000      1.0079
  123   2 H    1     -31.540001   27.310001   33.107999       1.0000      1.0079
  124   1 O    8      -5.260000    3.030000   37.298000       6.0000     15.9994
  125   2 H    1      -5.070000    3.430000   36.367999       1.0000      1.0079
  126   2 H    1      -4.800000    3.640000   37.867997       1.0000      1.0079
  127   1 O    8       1.650000   12.360001   34.357999       6.0000     15.9994
  128   2 H    1       1.230000   11.610001   34.947999       1.0000      1.0079
  129   2 H    1       0.890000   12.590000   33.757999       1.0000      1.0079
  130   1 O    8       1.440000   15.480001   34.518001       6.0000     15.9994
  131   2 H    1       2.140000   15.300001   35.227998       1.0000      1.0079
  132   2 H    1       0.620000   15.380001   35.048000       1.0000      1.0079
  133   1 O    8      14.290000   13.780001   33.977998       6.0000     15.9994
  134   2 H    1      15.170001   13.810000   33.498000       1.0000      1.0079
  135   2 H    1      14.250001   12.980001   34.537999       1.0000      1.0079
  136   1 O    8      14.780001    7.940001   38.128000       6.0000     15.9994
  137   2 H    1      14.730001    8.780001   38.607999       1.0000      1.0079
  138   2 H    1      13.850001    7.760000   37.778001       1.0000      1.0079
  139   1 O    8      12.420001   15.140000   30.148000       6.0000     15.9994
  140   2 H    1      12.630000   14.280001   29.707998       1.0000      1.0079
  141   2 H    1      13.150001   15.800000   29.797998       1.0000      1.0079
  142   1 O    8     -17.010000   18.580000   38.087999       6.0000     15.9994
  143   2 H    1     -16.500000   17.810001   38.408000       1.0000      1.0079
  144   2 H    1     -17.300001   19.080002   38.858001       1.0000      1.0079
  145   1 O    8      -9.210001    8.200001   38.478000       6.0000     15.9994
  146   2 H    1      -8.660001    7.890000   39.218000       1.0000      1.0079
  147   2 H    1      -8.730000    8.810000   37.827998       1.0000      1.0079
  148   1 O    8       2.030000   20.960003   34.398000       6.0000     15.9994
  149   2 H    1      11.220001    5.740000   34.518001       1.0000      1.0079
  150   2 H    1     -15.580001   20.630001   34.947999       1.0000      1.0079
  151   1 O    8       3.790000  -11.770000   32.567998       6.0000     15.9994
  152   2 H    1       3.750000  -12.580000   33.048000       1.0000      1.0079
  153   2 H    1       2.940000  -11.440001   32.318000       1.0000      1.0079
  154   1 O    8       6.990001   -1.210000   38.747999       6.0000     15.9994
  155   2 H    1       7.640000   -0.880000   38.168001       1.0000      1.0079
  156   2 H    1       7.110000   -0.710000   39.648000       1.0000      1.0079
  157   1 O    8       3.220000    8.790001   35.048000       6.0000     15.9994
  158   2 H    1       2.610000    8.050001   34.877998       1.0000      1.0079
  159   2 H    1       3.190000    8.920000   36.037999       1.0000      1.0079
  160   1 O    8     -10.240001   -4.060000   29.677999       6.0000     15.9994
  161   2 H    1      -9.740001   -4.290000   30.488000       1.0000      1.0079
  162   2 H    1     -11.060000   -4.590000   29.697999       1.0000      1.0079
  163   1 O    8      -2.010000   10.670000   39.168001       6.0000     15.9994
  164   2 H    1      -1.590000   10.570001   40.027999       1.0000      1.0079
  165   2 H    1      -1.850000   11.590000   38.878000       1.0000      1.0079
  166   1 O    8       5.680000   -2.880000   35.697999       6.0000     15.9994
  167   2 H    1       5.030000   -3.610000   35.318000       1.0000      1.0079
  168   2 H    1       5.320000   -2.390000   36.417999       1.0000      1.0079
  169   1 O    8      -6.920000    1.930000   39.058000       6.0000     15.9994
  170   2 H    1      -7.060000    0.960000   38.728000       1.0000      1.0079
  171   2 H    1      -6.230001    2.260000   38.468000       1.0000      1.0079
  172   1 O    8       7.120000   15.710001   34.098001       6.0000     15.9994
  173   2 H    1      16.200001    0.480000   33.627998       1.0000      1.0079
  174   2 H    1       6.250000   15.290001   33.998000       1.0000      1.0079
  175   1 O    8       4.500000   15.220001   34.147998       6.0000     15.9994
  176   2 H    1       4.270000   14.880000   35.037999       1.0000      1.0079
  177   2 H    1       4.630000   14.450001   33.617999       1.0000      1.0079
  178   1 O    8       3.650000   -3.780000   30.227998       6.0000     15.9994
  179   2 H    1       3.200000   -4.700000   30.387998       1.0000      1.0079
  180   2 H    1       3.670000   -3.430000   31.107999       1.0000      1.0079
  181   1 O    8       1.130000   20.360001   29.968000       6.0000     15.9994
  182   2 H    1       1.420000   21.150000   30.398000       1.0000      1.0079
  183   2 H    1      10.200001    5.740000   29.128000       1.0000      1.0079
  184   1 O    8       5.630000    4.680000   32.808000       6.0000     15.9994
  185   2 H    1       5.390000    4.300000   31.927999       1.0000      1.0079
  186   2 H    1       5.910000    5.600000   32.427999       1.0000      1.0079
  187   1 O    8      -3.360000   -2.450000   37.148000       6.0000     15.9994
  188   2 H    1      -3.110000   -2.720000   36.218000       1.0000      1.0079
  189   2 H    1      -3.780000   -3.310000   37.458000       1.0000      1.0079
  190   1 O    8       5.440001    2.700000   30.027997       6.0000     15.9994
  191   2 H    1       6.460000    2.560000   30.118001       1.0000      1.0079
  192   2 H    1       5.330000    3.600000   29.707998       1.0000      1.0079
  193   1 O    8      12.390001   15.730000   33.128000       6.0000     15.9994
  194   2 H    1      12.300000   15.530001   32.158000       1.0000      1.0079
  195   2 H    1      12.880001   14.910001   33.408000       1.0000      1.0079
  196   1 O    8       0.160000   -2.310000   37.878000       6.0000     15.9994
  197   2 H    1      -0.140000   -1.530000   37.298000       1.0000      1.0079
  198   2 H    1       0.990000   -2.010000   38.287999       1.0000      1.0079
  199   1 O    8     -12.320002  -14.970001   39.857999       6.0000     15.9994
  200   2 H    1     -13.030001  -15.640001   39.918001       1.0000      1.0079
  201   2 H    1     -11.490001  -15.550001   40.117999       1.0000      1.0079
  202   1 O    8      -8.570001   -4.230000   31.867999       6.0000     15.9994
  203   2 H    1      -7.650001   -4.250000   31.417999       1.0000      1.0079
  204   2 H    1      -8.280001   -4.870000   32.597999       1.0000      1.0079
  205   1 O    8      10.040001    3.720000   31.577998       6.0000     15.9994
  206   2 H    1       9.400001    3.830000   32.328000       1.0000      1.0079
  207   2 H    1       9.870001    4.530000   30.978000       1.0000      1.0079
  208   1 O    8      14.320001    7.770000   33.107999       6.0000     15.9994
  209   2 H    1      14.300001    6.920000   33.537999       1.0000      1.0079
  210   2 H    1      14.470000    7.690001   32.158000       1.0000      1.0079
  211   1 O    8       0.270000    8.140000   29.347997       6.0000     15.9994
  212   2 H    1      -9.080001   22.790001   29.587999       1.0000      1.0079
  213   2 H    1       0.550000    7.330000   29.828000       1.0000      1.0079
  214   1 O    8       9.610001   -0.730000   38.357999       6.0000     15.9994
  215   2 H    1       1.120000   13.060001   38.858001       1.0000      1.0079
  216   2 H    1       1.780000   13.800001   37.648000       1.0000      1.0079
  217   1 O    8      16.440001    6.660000   36.218000       6.0000     15.9994
  218   2 H    1      17.290001    6.440001   36.568000       1.0000      1.0079
  219   2 H    1      16.070002    7.390000   36.798000       1.0000      1.0079
  220   1 O    8     -21.860001   16.290001   37.348001       6.0000     15.9994
  221   2 H    1     -22.170000   16.730001   38.177999       1.0000      1.0079
  222   2 H    1     -22.580002   16.270000   36.738000       1.0000      1.0079
  223   1 O    8       8.300000   -3.870000   35.987998       6.0000     15.9994
  224   2 H    1       8.400001   -4.710000   35.497999       1.0000      1.0079
  225   2 H    1       7.330000   -3.650000   35.987998       1.0000      1.0079
  226   1 O    8      16.060001    4.420000   30.227998       6.0000     15.9994
  227   2 H    1      16.210001    4.020000   29.357999       1.0000      1.0079
  228   2 H    1      16.120001    3.770000   30.947999       1.0000      1.0079
  229   1 O    8     -13.650000    8.280001   29.758001       6.0000     15.9994
  230   2 H    1     -12.640000    8.170000   29.727998       1.0000      1.0079
  231   2 H    1     -14.140000    7.480001   30.087999       1.0000      1.0079
  232   1 O    8       2.940000  -16.530001   30.058000       6.0000     15.9994
  233   2 H    1       2.710000  -17.310001   30.597999       1.0000      1.0079
  234   2 H    1       2.520000  -16.670000   29.218000       1.0000      1.0079
  235   1 O    8       2.070000    2.270000   30.128000       6.0000     15.9994
  236   2 H    1       2.010000    2.520000   29.157998       1.0000      1.0079
  237   2 H    1       2.690000    1.460000   30.048002       1.0000      1.0079
  238   1 O    8       5.260000    8.820001   39.818000       6.0000     15.9994
  239   2 H    1       5.340000    7.930000   40.308000       1.0000      1.0079
  240   2 H    1       6.120000    8.830000   39.267999       1.0000      1.0079
  241   1 O    8     -12.350000   -1.010000   37.587999       6.0000     15.9994
  242   2 H    1     -11.470001   -1.030000   38.078000       1.0000      1.0079
  243   2 H    1     -12.570001   -0.130000   37.267999       1.0000      1.0079
  244   1 O    8      28.330002   -0.700000   36.437999       6.0000     15.9994
  245   2 H    1      29.130001   -1.170000   36.787999       1.0000      1.0079
  246   2 H    1      27.830002   -1.380000   35.927999       1.0000      1.0079
  247   1 O    8      -9.710001    5.350000   29.057996       6.0000     15.9994
  248   2 H    1     -10.390000    6.070001   29.148000       1.0000      1.0079
  249   2 H    1      -8.900001    5.690000   29.547998       1.0000      1.0079
  250   1 O    8      -7.350000   18.870001   34.567998       6.0000     15.9994
  251   2 H    1      -7.660000   18.230001   35.318000       1.0000      1.0079
  252   2 H    1      -6.380000   18.610001   34.308000       1.0000      1.0079
  253   1 O    8      25.070002    2.430000   30.157998       6.0000     15.9994
  254   2 H    1      25.760002    2.970000   30.587999       1.0000      1.0079
  255   2 H    1      25.150002    2.460000   29.157998       1.0000      1.0079
  256   1 O    8      -1.170000  -12.930001   35.157998       6.0000     15.9994
  257   2 H    1      -1.670000  -13.670001   34.667999       1.0000      1.0079
  258   2 H    1      -1.580000  -12.860001   36.017999       1.0000      1.0079
  259   1 O    8       5.730000   12.470001   30.328000       6.0000     15.9994
  260   2 H    1       4.780000   12.700001   30.137998       1.0000      1.0079
  261   2 H    1       5.890000   12.640000   31.328000       1.0000      1.0079
  262   1 O    8      -5.920000    8.800000   35.628000       6.0000     15.9994
  263   2 H    1      -6.120000    8.020000   34.997999       1.0000      1.0079
  264   2 H    1      -5.250000    9.400001   35.128000       1.0000      1.0079
  265   1 O    8       3.040000   17.780001   28.817998       6.0000     15.9994
  266   2 H    1       3.070000   16.800001   29.148000       1.0000      1.0079
  267   2 H    1       3.910000   18.230001   29.028001       1.0000      1.0079
  268   1 O    8      11.990000    8.010000   38.008001       6.0000     15.9994
  269   2 H    1       3.650000   23.560001   38.427999       1.0000      1.0079
  270   2 H    1      11.720000    8.220000   37.037999       1.0000      1.0079
  271   1 O    8       9.800000   10.770000   28.957998       6.0000     15.9994
  272   2 H    1      10.680000   10.840001   29.468000       1.0000      1.0079
  273   2 H    1       9.140000   11.510000   29.148000       1.0000      1.0079
  274   1 O    8      -2.610000   12.980001   29.228002       6.0000     15.9994
  275   2 H    1      -1.710000   13.390001   29.447999       1.0000      1.0079
  276   2 H    1      -2.410000   12.000000   29.447999       1.0000      1.0079
  277   1 O    8      -2.040000   21.850002   32.468000       6.0000     15.9994
  278   2 H    1      -1.070000   22.100000   32.407998       1.0000      1.0079
  279   2 H    1      -2.380000   22.050001   33.438001       1.0000      1.0079
  280   1 O    8      -4.430000   19.830000   36.818000       6.0000     15.9994
  281   2 H    1      -4.420000   19.270000   36.008001       1.0000      1.0079
  282   2 H    1      -3.540000   20.420000   36.708000       1.0000      1.0079
  283   1 O    8       9.560000   -4.000000   38.687999       6.0000     15.9994
  284   2 H    1       9.030001   -4.010000   37.867997       1.0000      1.0079
  285   2 H    1       9.270000   -4.770000   39.208000       1.0000      1.0079
  286   1 O    8      12.150001    4.430000   34.907998       6.0000     15.9994
  287   2 H    1      13.140000    4.690000   34.927999       1.0000      1.0079
  288   2 H    1      12.150001    3.670000   34.208000       1.0000      1.0079
  289   1 O    8       7.430000  -10.950001   33.037999       6.0000     15.9994
  290   2 H    1       8.320000  -10.580001   33.257999       1.0000      1.0079
  291   2 H    1       7.360001  -11.800001   33.517999       1.0000      1.0079
  292   1 O    8      18.750002    6.090000   37.718000       6.0000     15.9994
  293   2 H    1       1.900000    6.900001   38.317998       1.0000      1.0079
  294   2 H    1      19.690001    5.990000   37.298000       1.0000      1.0079
  295   1 O    8     -10.440001   16.360001   30.027997       6.0000     15.9994
  296   2 H    1     -11.330000   15.960001   30.177999       1.0000      1.0079
  297   2 H    1     -10.280000   16.150002   29.098001       1.0000      1.0079
  298   1 O    8      -4.750000    0.830000   30.077997       6.0000     15.9994
  299   2 H    1      -5.240001    0.650000   30.897998       1.0000      1.0079
  300   2 H    1      -4.650001   -0.050000   29.688001       1.0000      1.0079
  301   1 O    8       5.220000   15.730000   37.697999       6.0000     15.9994
  302   2 H    1       4.890000   15.150002   38.517999       1.0000      1.0079
  303   2 H    1       4.450000   16.310001   37.447999       1.0000      1.0079
  304   1 O    8      -8.460000   -0.270000   29.988000       6.0000     15.9994
  305   2 H    1      -8.060000   -0.340000   29.078000       1.0000      1.0079
  306   2 H    1      -8.540000    0.660000   30.177999       1.0000      1.0079
  307   1 O    8      -2.110000   21.220001   36.898000       6.0000     15.9994
  308   2 H    1      -1.390000   20.610001   36.398000       1.0000      1.0079
  309   2 H    1      -1.550000   21.690002   37.587999       1.0000      1.0079
  310   3 Pt  78       1.540000    0.760000   26.837999      10.0000    195.0840
  311   3 Pt  78       4.340000    0.850000   26.767999      10.0000    195.0840
  312   3 Pt  78       7.090001    0.660000   26.857999      10.0000    195.0840
  313   3 Pt  78      10.030001    0.630000   26.648000      10.0000    195.0840
  314   3 Pt  78      12.830001    0.760000   26.757997      10.0000    195.0840
  315   3 Pt  78      15.620001    0.720000   27.028001      10.0000    195.0840
  316   3 Pt  78       3.000000    3.200000   26.808000      10.0000    195.0840
  317   3 Pt  78       5.790000    3.150000   26.767999      10.0000    195.0840
  318   3 Pt  78       8.710001    2.990000   26.687997      10.0000    195.0840
  319   3 Pt  78      11.470001    3.200000   26.677999      10.0000    195.0840
  320   3 Pt  78      14.380001    3.130000   26.847997      10.0000    195.0840
  321   3 Pt  78       0.220000    3.110000   27.008001      10.0000    195.0840
  322   3 Pt  78       4.450000    5.600000   26.808000      10.0000    195.0840
  323   3 Pt  78       7.320001    5.520000   26.857999      10.0000    195.0840
  324   3 Pt  78      10.110001    5.570001   26.938001      10.0000    195.0840
  325   3 Pt  78      12.890000    5.540000   26.817998      10.0000    195.0840
  326   3 Pt  78      -1.070000    5.540000   26.808000      10.0000    195.0840
  327   3 Pt  78       1.710000    5.600000   26.887998      10.0000    195.0840
  328   3 Pt  78       5.950000    8.000000   26.738000      10.0000    195.0840
  329   3 Pt  78       8.750001    7.970000   26.898000      10.0000    195.0840
  330   3 Pt  78      11.550001    8.020000   26.817998      10.0000    195.0840
  331   3 Pt  78      -2.540000    8.050001   26.777997      10.0000    195.0840
  332   3 Pt  78       0.200000    8.030001   26.878000      10.0000    195.0840
  333   3 Pt  78       3.040000    8.060000   26.847997      10.0000    195.0840
  334   3 Pt  78       7.260000   10.400001   26.808000      10.0000    195.0840
  335   3 Pt  78      10.110001   10.450001   26.828000      10.0000    195.0840
  336   3 Pt  78      -3.940000   10.330000   26.847997      10.0000    195.0840
  337   3 Pt  78      -1.170000   10.540000   26.808000      10.0000    195.0840
  338   3 Pt  78       1.660000   10.530001   26.817998      10.0000    195.0840
  339   3 Pt  78       4.460000   10.440001   26.728002      10.0000    195.0840
  340   3 Pt  78       8.490001   12.860001   26.808000      10.0000    195.0840
  341   3 Pt  78      -5.380001   12.940001   26.747999      10.0000    195.0840
  342   3 Pt  78      -2.620000   12.990000   26.878000      10.0000    195.0840
  343   3 Pt  78       0.170000   12.920000   26.738000      10.0000    195.0840
  344   3 Pt  78       3.070000   12.910000   26.898000      10.0000    195.0840
  345   3 Pt  78       5.730000   12.930001   26.917997      10.0000    195.0840
  346   3 Pt  78       0.130000    1.510000   24.637998      10.0000    195.0840
  347   3 Pt  78       2.960000    1.590000   24.477998      10.0000    195.0840
  348   3 Pt  78       5.830000    1.530000   24.468000      10.0000    195.0840
  349   3 Pt  78       8.570001    1.410000   24.328000      10.0000    195.0840
  350   3 Pt  78      11.450001    1.500000   24.357999      10.0000    195.0840
  351   3 Pt  78      14.200001    1.530000   24.517999      10.0000    195.0840
  352   3 Pt  78       1.660000    3.940000   24.387998      10.0000    195.0840
  353   3 Pt  78       4.400000    4.110000   24.547998      10.0000    195.0840
  354   3 Pt  78       7.180000    3.950000   24.487996      10.0000    195.0840
  355   3 Pt  78      10.050000    3.850000   24.357999      10.0000    195.0840
  356   3 Pt  78      12.910000    3.970000   24.468000      10.0000    195.0840
  357   3 Pt  78      -1.190000    3.920000   24.417997      10.0000    195.0840
  358   3 Pt  78       3.010000    6.440001   24.528001      10.0000    195.0840
  359   3 Pt  78       5.950000    6.420000   24.497999      10.0000    195.0840
  360   3 Pt  78       8.700001    6.280000   24.537999      10.0000    195.0840
  361   3 Pt  78      11.480000    6.440001   24.528001      10.0000    195.0840
  362   3 Pt  78      -2.420000    6.430000   24.547998      10.0000    195.0840
  363   3 Pt  78       0.250000    6.440001   24.487996      10.0000    195.0840
  364   3 Pt  78       4.500000    8.850000   24.417997      10.0000    195.0840
  365   3 Pt  78       7.280001    8.870000   24.368001      10.0000    195.0840
  366   3 Pt  78      10.060000    8.830000   24.517999      10.0000    195.0840
  367   3 Pt  78      -3.960000    8.830000   24.468000      10.0000    195.0840
  368   3 Pt  78      -1.170000    8.840000   24.508001      10.0000    195.0840
  369   3 Pt  78       1.660000    8.770000   24.517999      10.0000    195.0840
  370   3 Pt  78       5.830000   11.380000   24.447999      10.0000    195.0840
  371   3 Pt  78       8.560000   11.220001   24.517999      10.0000    195.0840
  372   3 Pt  78      -5.360000   11.200000   24.587999      10.0000    195.0840
  373   3 Pt  78      -2.550000   11.250000   24.547998      10.0000    195.0840
  374   3 Pt  78       0.310000   11.200000   24.468000      10.0000    195.0840
  375   3 Pt  78       3.080000   11.130000   24.567998      10.0000    195.0840
  376   3 Pt  78       7.190001   13.740001   24.417997      10.0000    195.0840
  377   3 Pt  78      -6.830000   13.680000   24.587999      10.0000    195.0840
  378   3 Pt  78      -4.000000   13.690001   24.487996      10.0000    195.0840
  379   3 Pt  78      -1.270000   13.590001   24.567998      10.0000    195.0840
  380   3 Pt  78       1.700000   13.590001   24.458001      10.0000    195.0840
  381   3 Pt  78       4.350000   13.580000   24.487996      10.0000    195.0840
  382   3 Pt  78      -8.290001   14.520000   22.247999      10.0000    195.0840
  383   3 Pt  78      -5.450000   14.470000   22.247999      10.0000    195.0840
  384   3 Pt  78      -2.620000   14.470000   22.188001      10.0000    195.0840
  385   3 Pt  78       0.170000   14.400001   22.177999      10.0000    195.0840
  386   3 Pt  78       3.020000   14.450001   22.128000      10.0000    195.0840
  387   3 Pt  78       5.810000   14.510001   22.097997      10.0000    195.0840
  388   3 Pt  78       1.560000    2.320000   22.227998      10.0000    195.0840
  389   3 Pt  78       4.470000    2.390000   22.157998      10.0000    195.0840
  390   3 Pt  78       7.260000    2.280000   22.078000      10.0000    195.0840
  391   3 Pt  78      10.030001    2.240000   22.048002      10.0000    195.0840
  392   3 Pt  78      12.880001    2.310000   22.048002      10.0000    195.0840
  393   3 Pt  78      -1.200000    2.300000   22.188001      10.0000    195.0840
  394   3 Pt  78       3.080000    4.830000   22.197999      10.0000    195.0840
  395   3 Pt  78       5.850000    4.800000   22.237996      10.0000    195.0840
  396   3 Pt  78       8.750001    4.800000   22.078000      10.0000    195.0840
  397   3 Pt  78      11.360001    4.740000   22.148000      10.0000    195.0840
  398   3 Pt  78      -2.620000    4.760000   22.218000      10.0000    195.0840
  399   3 Pt  78       0.240000    4.800000   22.157998      10.0000    195.0840
  400   3 Pt  78       4.450000    7.310000   22.167997      10.0000    195.0840
  401   3 Pt  78       7.210000    7.220001   22.148000      10.0000    195.0840
  402   3 Pt  78       9.980000    7.260000   22.218000      10.0000    195.0840
  403   3 Pt  78      -4.110000    7.180000   22.188001      10.0000    195.0840
  404   3 Pt  78      -1.170000    7.210000   22.137998      10.0000    195.0840
  405   3 Pt  78       1.630000    7.210000   22.148000      10.0000    195.0840
  406   3 Pt  78       5.800000    9.690001   22.157998      10.0000    195.0840
  407   3 Pt  78       8.570001    9.650001   22.207998      10.0000    195.0840
  408   3 Pt  78      -5.390000    9.710001   22.258001      10.0000    195.0840
  409   3 Pt  78      -2.640000    9.580001   22.258001      10.0000    195.0840
  410   3 Pt  78       0.290000    9.520000   22.177999      10.0000    195.0840
  411   3 Pt  78       3.000000    9.690001   22.087999      10.0000    195.0840
  412   3 Pt  78       7.220001   12.120000   22.128000      10.0000    195.0840
  413   3 Pt  78      -6.850000   12.100000   22.357999      10.0000    195.0840
  414   3 Pt  78      -4.050000   12.030001   22.207998      10.0000    195.0840
  415   3 Pt  78      -1.240000   12.020000   22.148000      10.0000    195.0840
  416   3 Pt  78       1.630000   12.060001   22.078000      10.0000    195.0840
  417   3 Pt  78       4.320000   12.140001   22.118001      10.0000    195.0840
  418   3 Pt  78       1.630000    0.710000   20.000001      10.0000    195.0840
  419   3 Pt  78       4.480000    0.570000   19.970001      10.0000    195.0840
  420   3 Pt  78       7.170000    0.670000   19.890001      10.0000    195.0840
  421   3 Pt  78       9.940001    0.640000   19.760001      10.0000    195.0840
  422   3 Pt  78      12.850000    0.630000   19.750001      10.0000    195.0840
  423   3 Pt  78      15.600000    0.680000   19.840001      10.0000    195.0840
  424   3 Pt  78       3.050000    3.060000   19.920001      10.0000    195.0840
  425   3 Pt  78       5.780000    3.160000   19.820001      10.0000    195.0840
  426   3 Pt  78       8.570001    3.140000   19.850001      10.0000    195.0840
  427   3 Pt  78      11.360001    3.060000   19.810001      10.0000    195.0840
  428   3 Pt  78      14.220000    3.100000   19.800001      10.0000    195.0840
  429   3 Pt  78       0.170000    3.060000   19.820001      10.0000    195.0840
  430   3 Pt  78       4.360000    5.600000   19.910001      10.0000    195.0840
  431   3 Pt  78       7.120000    5.690000   19.890001      10.0000    195.0840
  432   3 Pt  78       9.870001    5.620000   19.760001      10.0000    195.0840
  433   3 Pt  78      12.700001    5.470000   19.910001      10.0000    195.0840
  434   3 Pt  78      -1.190000    5.480001   19.930001      10.0000    195.0840
  435   3 Pt  78       1.650000    5.480001   19.940001      10.0000    195.0840
  436   3 Pt  78       5.780000    8.070001   19.860001      10.0000    195.0840
  437   3 Pt  78       8.590000    8.140000   19.860001      10.0000    195.0840
  438   3 Pt  78      11.410000    8.030001   19.830001      10.0000    195.0840
  439   3 Pt  78      -2.690000    7.880001   19.870001      10.0000    195.0840
  440   3 Pt  78       0.200000    7.890000   19.870001      10.0000    195.0840
  441   3 Pt  78       3.030000    8.030001   19.830001      10.0000    195.0840
  442   3 Pt  78       7.150001   10.550001   19.930001      10.0000    195.0840
  443   3 Pt  78      10.030001   10.460000   20.050001      10.0000    195.0840
  444   3 Pt  78      -4.020000   10.410000   19.930001      10.0000    195.0840
  445   3 Pt  78      -1.240000   10.340000   19.840001      10.0000    195.0840
  446   3 Pt  78       1.450000   10.520000   19.800001      10.0000    195.0840
  447   3 Pt  78       4.380000   10.460000   19.870001      10.0000    195.0840
  448   3 Pt  78       8.530001   12.900001   19.880001      10.0000    195.0840
  449   3 Pt  78      -5.500000   12.820001   20.090001      10.0000    195.0840
  450   3 Pt  78      -2.620000   12.720001   19.840001      10.0000    195.0840
  451   3 Pt  78       0.070000   12.790001   19.800001      10.0000    195.0840
  452   3 Pt  78       2.910000   12.820001   19.690001      10.0000    195.0840
  453   3 Pt  78       5.750000   12.910000   19.710001      10.0000    195.0840
  454   3 Pt  78       0.150000    1.360000   17.510000      10.0000    195.0840
  455   3 Pt  78       3.070000    1.400000   17.670001      10.0000    195.0840
  456   3 Pt  78       5.750000    1.470000   17.470001      10.0000    195.0840
  457   3 Pt  78       8.520000    1.560000   17.580000      10.0000    195.0840
  458   3 Pt  78      11.420001    1.530000   17.420000      10.0000    195.0840
  459   3 Pt  78      14.230001    1.350000   17.510000      10.0000    195.0840
  460   3 Pt  78       1.570000    3.920000   17.570001      10.0000    195.0840
  461   3 Pt  78       4.350000    3.840000   17.540001      10.0000    195.0840
  462   3 Pt  78       7.160000    3.970000   17.540001      10.0000    195.0840
  463   3 Pt  78      10.030001    4.010000   17.400001      10.0000    195.0840
  464   3 Pt  78      12.760000    3.890000   17.530000      10.0000    195.0840
  465   3 Pt  78      -1.250000    3.860000   17.500000      10.0000    195.0840
  466   3 Pt  78       2.840000    6.310000   17.680001      10.0000    195.0840
  467   3 Pt  78       5.660000    6.350000   17.630001      10.0000    195.0840
  468   3 Pt  78       8.510000    6.480000   17.440001      10.0000    195.0840
  469   3 Pt  78      11.310000    6.380000   17.570001      10.0000    195.0840
  470   3 Pt  78      -2.750000    6.360001   17.630001      10.0000    195.0840
  471   3 Pt  78       0.070000    6.340000   17.660001      10.0000    195.0840
  472   3 Pt  78       4.290000    8.710001   17.510000      10.0000    195.0840
  473   3 Pt  78       7.130001    8.870000   17.540001      10.0000    195.0840
  474   3 Pt  78       9.940001    8.890000   17.550000      10.0000    195.0840
  475   3 Pt  78      -4.110000    8.890000   17.580000      10.0000    195.0840
  476   3 Pt  78      -1.440000    8.810000   17.550000      10.0000    195.0840
  477   3 Pt  78       1.460000    8.780001   17.600000      10.0000    195.0840
  478   3 Pt  78       5.710001   11.180000   17.460001      10.0000    195.0840
  479   3 Pt  78       8.550000   11.250000   17.590001      10.0000    195.0840
  480   3 Pt  78      -5.510000   11.240001   17.670001      10.0000    195.0840
  481   3 Pt  78      -2.640000   11.220001   17.460001      10.0000    195.0840
  482   3 Pt  78       0.200000   11.230000   17.440001      10.0000    195.0840
  483   3 Pt  78       2.960000   11.170001   17.390000      10.0000    195.0840
  484   3 Pt  78       7.230001   13.550000   17.420000      10.0000    195.0840
  485   3 Pt  78      -6.820001   13.660001   17.630001      10.0000    195.0840
  486   3 Pt  78      -4.040000   13.650000   17.660001      10.0000    195.0840
  487   3 Pt  78      -1.300000   13.810000   17.550000      10.0000    195.0840
  488   3 Pt  78       1.520000   13.750001   17.490001      10.0000    195.0840
  489   3 Pt  78       4.320000   13.520001   17.400001      10.0000    195.0840
  490   3 Pt  78      -8.330001   14.540001   15.110001      10.0000    195.0840
  491   3 Pt  78      -5.480001   14.390000   15.330000      10.0000    195.0840
  492   3 Pt  78      -2.740000   14.420000   15.130000      10.0000    195.0840
  493   3 Pt  78       0.100000   14.540001   15.210001      10.0000    195.0840
  494   3 Pt  78       2.930000   14.430000   15.000000      10.0000    195.0840
  495   3 Pt  78       5.760000   14.370001   15.080000      10.0000    195.0840
  496   3 Pt  78       1.670000    2.220000   15.360001      10.0000    195.0840
  497   3 Pt  78       4.450000    2.290000   15.190000      10.0000    195.0840
  498   3 Pt  78       7.330000    2.430000   15.170001      10.0000    195.0840
  499   3 Pt  78      10.070001    2.240000   15.040000      10.0000    195.0840
  500   3 Pt  78      12.760000    2.240000   15.110001      10.0000    195.0840
  501   3 Pt  78      -1.290000    2.240000   15.060000      10.0000    195.0840
  502   3 Pt  78       2.940000    4.610000   15.310000      10.0000    195.0840
  503   3 Pt  78       5.780000    4.720000   15.220000      10.0000    195.0840
  504   3 Pt  78       8.480000    4.880000   15.050000      10.0000    195.0840
  505   3 Pt  78      11.260000    4.760000   15.110001      10.0000    195.0840
[...]
 -                                                                             -
 -                                DBCSR STATISTICS                             -
 -                                                                             -
 -------------------------------------------------------------------------------
 COUNTER                                    TOTAL       BLAS       SMM       ACC
 flops     5 x     5 x    96           5114640000       0.0%    100.0%      0.0%
 flops     5 x     5 x   104           5540860000       0.0%    100.0%      0.0%
 flops     5 x    13 x    96           6470880000       0.0%    100.0%      0.0%
 flops    13 x     5 x    96           6480240000       0.0%    100.0%      0.0%
 flops     5 x    13 x   104           7010120000       0.0%    100.0%      0.0%
 flops    13 x     5 x   104           7020260000       0.0%    100.0%      0.0%
 flops    13 x    13 x    96           7665840000       0.0%    100.0%      0.0%
 flops    13 x    13 x   104           8304660000       0.0%    100.0%      0.0%
 flops    13 x    20 x    96          10328448000       0.0%    100.0%      0.0%
 flops    20 x    13 x    96          10345920000       0.0%    100.0%      0.0%
 flops    20 x     5 x    96          11128320000       0.0%    100.0%      0.0%
 flops     5 x    20 x    96          11134080000       0.0%    100.0%      0.0%
 flops    13 x    20 x   104          11189152000       0.0%    100.0%      0.0%
 flops    20 x    13 x   104          11208080000       0.0%    100.0%      0.0%
 flops    20 x     5 x   104          12055680000       0.0%    100.0%      0.0%
 flops     5 x    20 x   104          12061920000       0.0%    100.0%      0.0%
 flops    20 x    20 x    96          89994240000       0.0%    100.0%      0.0%
 flops     5 x     5 x   128          95473280000       0.0%    100.0%      0.0%
 flops    20 x    20 x   104          97493760000       0.0%    100.0%      0.0%
 flops     5 x    13 x   128         120789760000       0.0%    100.0%      0.0%
 flops    13 x     5 x   128         120964480000       0.0%    100.0%      0.0%
 flops    13 x    13 x   128         143095680000       0.0%    100.0%      0.0%
 flops    13 x    20 x   128         192797696000       0.0%    100.0%      0.0%
 flops    20 x    13 x   128         193123840000       0.0%    100.0%      0.0%
 flops    20 x     5 x   128         207728640000       0.0%    100.0%      0.0%
 flops     5 x    20 x   128         207836160000       0.0%    100.0%      0.0%
 flops    20 x    20 x   128        1679892480000       0.0%    100.0%      0.0%
 flops inhomo. stacks                           0       0.0%      0.0%      0.0%
 flops total                         3.292249E+12       0.0%    100.0%      0.0%
 flops max/rank                     29.797930E+09       0.0%    100.0%      0.0%
 matmuls inhomo. stacks                         0       0.0%      0.0%      0.0%
 matmuls total                           81360000       0.0%    100.0%      0.0%
 number of processed stacks                918400       0.0%    100.0%      0.0%
 average stack size                                     0.0      88.6       0.0
 marketing flops                     6.949707E+12
 -------------------------------------------------------------------------------
 # multiplications                             50
 max memory usage/rank               1.630208E+09
 # max total images/rank                        2
 # max 3D layers                                1
 # MPI messages exchanged                  185600
 MPI messages size (bytes):
  total size                       117.255504E+09
  min size                         319.488000E+03
  max size                         859.136000E+03
  average size                     631.764562E+03
 MPI breakdown and total messages size (bytes):
             size <=      128                   0                        0
       128 < size <=     8192                   0                        0
      8192 < size <=    32768                   0                        0
     32768 < size <=   131072                   0                        0
    131072 < size <=  4194304              185600             117255494400
   4194304 < size <= 16777216                   0                        0
  16777216 < size                               0                        0
 -------------------------------------------------------------------------------

 *** WARNING in dbcsr_mm.F:290 :: Using a non-square number of MPI ranks ***
 *** might lead to poor performance. Used ranks: 128 Suggested: 121 256  ***

 -------------------------------------------------------------------------------
 -                                                                             -
 -                      DBCSR MESSAGE PASSING PERFORMANCE                      -
 -                                                                             -
 -------------------------------------------------------------------------------
 ROUTINE             CALLS      AVE VOLUME [Bytes]
 MP_Bcast               28                     12.
 MP_Allreduce          424                     11.
 MP_Alltoall          1412                 620295.
 MP_ISend             3200                 299052.
 MP_IRecv             3200                 292782.
 -------------------------------------------------------------------------------

 -------------------------------------------------------------------------------
 -                                                                             -
 -                                DBM STATISTICS                               -
 -                                                                             -
 -------------------------------------------------------------------------------
    M  x    N  x    K                                          COUNT     PERCENT
 -------------------------------------------------------------------------------

 -------------------------------------------------------------------------------
 -                                                                             -
 -                                GRID STATISTICS                              -
 -                                                                             -
 -------------------------------------------------------------------------------
 LP    KERNEL             BACKEND                              COUNT     PERCENT
 4     collocate general  REF                               20327700      21.79%
 4     integrate general  REF                               20209504      21.66%
 3     collocate general  REF                               14417900      15.45%
 3     integrate general  REF                               14364911      15.40%
 2     collocate general  REF                               11768450      12.61%
 2     integrate general  REF                               11533081      12.36%
 5     integrate general  REF                                 406554       0.44%
 0     collocate general  REF                                 134400       0.14%
 0     integrate general  REF                                  67200       0.07%
 1     integrate general  REF                                  67200       0.07%
 -------------------------------------------------------------------------------

 MEMORY| Estimated peak process memory [MiB]                                1836

 -------------------------------------------------------------------------------
 ----                             MULTIGRID INFO                            ----
 -------------------------------------------------------------------------------
 count for grid        1:        1099376          cutoff [a.u.]          200.00
 count for grid        2:        1094473          cutoff [a.u.]           66.67
 count for grid        3:         720662          cutoff [a.u.]           22.22
 count for grid        4:         561155          cutoff [a.u.]            7.41
 total gridlevel count  :        3475666

 -------------------------------------------------------------------------------
 -                                                                             -
 -                         MESSAGE PASSING PERFORMANCE                         -
 -                                                                             -
 -------------------------------------------------------------------------------

 ROUTINE             CALLS      AVE VOLUME [Bytes]
 MP_Group                4
 MP_Bcast              253                2257007.
 MP_Allreduce         3706                  29746.
 MP_Sync               104
 MP_Alltoall          3022               16835026.
 MP_SendRecv           508                   5907.
 MP_ISendRecv        25400                  61740.
 MP_Wait             44864
 MP_comm_split          50
 MP_ISend            18344                 256260.
 MP_IRecv            18344                 256260.
 MP_Recv               186                1712384.
 MP_Write_All            3                1797408.
 -------------------------------------------------------------------------------


 -------------------------------------------------------------------------------
 -                                                                             -
 -                           R E F E R E N C E S                               -
 -                                                                             -
 -------------------------------------------------------------------------------
 
 CP2K version 2022.1, the CP2K developers group (2022).
 CP2K is freely available from https://www.cp2k.org/ .

 Kuehne,Thomas D.; Iannuzzi,Marcella; Del Ben,Mauro;
 Rybkin,Vladimir V.; Seewald,Patrick; Stein,Frederick; Laino,Teodoro;
 Khaliullin,Rustam Z.; Schuett,Ole; Schiffmann,Florian; Golze,Dorothea;
 Wilhelm,Jan; Chulkov,Sergey; Bani-Hashemian,Mohammad Hossein;
 Weber,Valery; Borstnik,Urban; Taillefumier,Mathieu;
 Jakobovits,Alice Shoshana; Lazzaro,Alfio; Pabst,Hans; Mueller,Tiziano;
 Schade,Robert; Guidon,Manuel; Andermatt,Samuel; Holmberg,Nico;
 Schenter,Gregory K.; Hehn,Anna; Bussy,Augustin; Belleflamme,Fabian;
 Tabacchi,Gloria; Gloess,Andreas; Lass,Michael; Bethune,Iain;
 Mundy,Christopher J.; Plessl,Christian; Watkins,Matt;
 VandeVondele,Joost; Krack,Matthias; Hutter,Juerg. 
 The Journal of Chemical Physics, 152 (19), (2020). 
 CP2K: An electronic structure and molecular dynamics software package -
 Quickstep: Efficient and accurate electronic structure calculations.
 https://doi.org/10.1063/5.0007045

 Goerigk, Lars; Hansen, Andreas; Bauer, Christoph; Ehrlich, Stephan;
 Najibi, Asim; Grimme, Stefan. , 19 (48), (2017). 
 A look at the density functional theory zoo with the advanced GMTKN55 database
 for general main group thermochemistry, kinetics and noncovalent interactions.
 https://doi.org/10.1039/C7CP04913G

 Bani-Hashemian, MH; Bruck, S; Luisier, M; VandeVondele, J. 
 JOURNAL OF CHEMICAL PHYSICS, 144 (4), 044113 (2016). 
 A generalized Poisson solver for first-principles device simulations.
 https://doi.org/10.1063/1.4940796

 Schuett, Ole; Messmer, Peter; Hutter, Juerg; VandeVondele, Joost. 
 Electronic Structure Calculations on Graphics Processing Units, John
 Wiley & Sons, Ltd, 173-190 (2016). 
 GPU-Accelerated Sparse Matrix-Matrix Multiplication for
 Linear Scaling Density Functional Theory.
 https://doi.org/10.1002/9781118670712.ch8

 Heinecke, A; Henry, G; Hutchinson, M; Pabst, H. 
 Proceedings of Intl. Supercomputing Conference, 981-991 (2016). 
 LIBXSMM: Accelerating Small Matrix Multiplications
 by Runtime Code Generation.
 https://doi.org/10.1109/SC.2016.83

 Borstnik, U; VandeVondele, J; Weber, V; Hutter, J. 
 PARALLEL COMPUTING, 40 (5-6), 47-58 (2014). 
 Sparse matrix multiplication: The distributed block-compressed sparse
 row library.
 https://doi.org/10.1016/j.parco.2014.03.012

 Hutter, J; Iannuzzi, M; Schiffmann, F; VandeVondele, J. 
 WIREs Comput Mol Sci., 4 (1), 15-25 (2014). 
 CP2K: atomistic simulations of condensed matter systems.
 https://doi.org/10.1002/wcms.1159

 Marek, A; Blum, V; Johanni, R; Havu, V; Lang, B; Auckenthaler, T;
 Heinecke, A; Bungartz, H; Lederer, H. 
 Journal of Physics: Condensed Matter, 26 (21), (2014). 
 The ELPA library: scalable parallel eigenvalue solutions for
 electronic structure
 theory and computational science.
 https://doi.org/10.1088/0953-8984/26/21/213201

 Grimme, S; Ehrlich, S; Goerigk, L. 
 JOURNAL OF COMPUTATIONAL CHEMISTRY, 32, 1456 (2011). 
 Effect of the damping function in dispersion corrected density functional theory.
 https://doi.org/10.1002/jcc.21759

 Grimme, S; Antony, J; Ehrlich, S; Krieg, H. 
 JOURNAL OF CHEMICAL PHYSICS, 132 (15), 154104 (2010). 
 A consistent and accurate ab initio parametrization of density
 functional dispersion correction (DFT-D) for the 94 elements H-Pu.
 https://doi.org/10.1063/1.3382344

 VandeVondele, J; Hutter, J. 
 JOURNAL OF CHEMICAL PHYSICS, 127 (11), 114105 (2007). 
 Gaussian basis sets for accurate calculations on molecular systems in
 gas and condensed phases.
 https://doi.org/10.1063/1.2770708

 Krack, M. 
 THEORETICAL CHEMISTRY ACCOUNTS, 114 (1-3), 145-152 (2005). 
 Pseudopotentials for H to Kr optimized for gradient-corrected
 exchange-correlation functionals.
 https://doi.org/10.1007/s00214-005-0655-y

 VandeVondele, J; Krack, M; Mohamed, F; Parrinello, M; Chassaing, T;
 Hutter, J. COMPUTER PHYSICS COMMUNICATIONS, 167 (2), 103-128 (2005). 
 QUICKSTEP: Fast and accurate density functional calculations using a
 mixed Gaussian and plane waves approach.
 https://doi.org/10.1016/j.cpc.2004.12.014

 Frigo, M; Johnson, SG. 
 PROCEEDINGS OF THE IEEE, 93 (2), 216-231 (2005). 
 The design and implementation of FFTW3.
 https://doi.org/10.1109/JPROC.2004.840301

 Hartwigsen, C; Goedecker, S; Hutter, J. 
 PHYSICAL REVIEW B, 58 (7), 3641-3662 (1998). 
 Relativistic separable dual-space Gaussian pseudopotentials from H to Rn.
 https://doi.org/10.1103/PhysRevB.58.3641

 Lippert, G; Hutter, J; Parrinello, M. 
 MOLECULAR PHYSICS, 92 (3), 477-487 (1997). 
 A hybrid Gaussian and plane wave density functional scheme.
 https://doi.org/10.1080/002689797170220

 Perdew, JP; Burke, K; Ernzerhof, M. 
 PHYSICAL REVIEW LETTERS, 77 (18), 3865-3868 (1996). 
 Generalized gradient approximation made simple.
 https://doi.org/10.1103/PhysRevLett.77.3865

 Goedecker, S; Teter, M; Hutter, J. 
 PHYSICAL REVIEW B, 54 (3), 1703-1710 (1996). 
 Separable dual-space Gaussian pseudopotentials.
 https://doi.org/10.1103/PhysRevB.54.1703


 -------------------------------------------------------------------------------
 -                                                                             -
 -                                T I M I N G                                  -
 -                                                                             -
 -------------------------------------------------------------------------------
 SUBROUTINE                       CALLS  ASD         SELF TIME        TOTAL TIME
                                MAXIMUM       AVERAGE  MAXIMUM  AVERAGE  MAXIMUM
 CP2K                                 1  1.0    0.142    0.170  349.676  349.678
 qs_forces                            1  2.0    0.002    0.002  349.132  349.135
 qs_energies                          1  3.0    0.000    0.000  342.805  342.809
 scf_env_do_scf                       1  4.0    0.000    0.001  334.188  334.327
 scf_env_do_scf_inner_loop           49  5.0    0.003    0.006  334.188  334.327
 rebuild_ks_matrix                   50  6.9    0.000    0.000  178.078  178.115
 qs_ks_build_kohn_sham_matrix        50  7.9    0.008    0.009  178.078  178.114
 qs_ks_update_qs_env                 49  6.0    0.000    0.000  173.943  173.979
 pw_transfer                       2604 12.2    0.188    0.257  111.478  113.725
 fft_wrap_pw1pw2                   2604 13.2    0.026    0.032  111.290  113.529
 fft_wrap_pw1pw2_200               2304 14.4    7.686    9.006  109.720  112.023
 qs_scf_new_mos                      49  6.0    0.002    0.006   97.494   97.620
 pw_poisson_solve                    50  8.9    0.005    0.012   96.120   96.159
 fft3d_ps                          2604 15.2   32.624   36.525   89.057   92.502
 eigensolver                         49  7.0    0.004    0.006   91.947   92.231
 implicit_poisson_solver_mixed_      50  9.9    2.066    2.505   91.105   91.194
 cp_fm_diag_elpa                     50  8.0    0.001    0.001   64.211   64.366
 derive_fft                         300 12.1    0.019    0.024   63.921   64.098
 cp_fm_redistribute_end              50  9.0    8.380   63.604    8.493   63.674
 cp_fm_diag_elpa_base                50  9.0   54.359   62.224   54.873   62.836
 mp_alltoall_z22v                  2604 17.2   46.848   58.567   46.848   58.567
 qs_rho_update_rho_low               50  6.0    0.000    0.000   54.870   54.881
 calculate_rho_elec                  50  7.0    0.097    0.132   54.870   54.881
 sum_up_and_integrate                50  8.9    0.272    0.334   54.802   54.840
 apply_P_operator                   250 11.1    1.332    1.479   54.645   54.818
 integrate_v_rspace                  50  9.9    0.002    0.003   54.530   54.643
 grid_collocate_task_list            50  8.0   36.859   42.861   36.859   42.861
 grid_integrate_task_list            50 10.9   34.167   38.959   34.167   38.959
 x_to_yz                           1501 16.4    6.367    8.188   35.584   37.191
 rs_pw_transfer                     404 10.4    0.005    0.006   23.504   29.745
 cp_fm_triangular_multiply          147  8.0   28.898   29.199   28.898   29.199
 yz_to_x                            803 16.4    2.208    2.579   19.636   26.941
 qs_vxc_create                       50  8.9    0.001    0.003   24.358   24.654
 xc_vxc_pw_create                    50  9.9    0.424    0.524   24.357   24.653
 density_rs2pw                       50  8.0    0.003    0.004   16.825   22.855
 xc_pw_derive                       300 11.9    0.005    0.006   17.100   18.965
 apply_poisson_operator_fft          50 10.9    0.001    0.001   15.876   16.149
 mp_waitany                       18344 12.4    9.390   15.865    9.390   15.865
 rs_pw_transfer_RS2PW_200            52  9.9    3.473    4.102    9.229   15.475
 apply_inv_laplace_operator_fft     152 11.6    0.382    0.422   14.553   15.098
 potential_pw2rs                     50 10.9    0.015    0.021   14.869   14.980
 xc_pw_divergence                    50 10.9    0.003    0.003   11.605   13.024
 mp_alltoall_d11v                   707 10.2    7.019   12.874    7.019   12.874
 xc_rho_set_and_dset_create          50 10.9    0.247    0.287   11.880   12.620
 ps_implicit_compute_error_fft      100 10.9    0.629    0.766   10.829   11.592
 rs_gather_matrices                  50 10.9    0.061    0.075    5.482   11.372
 pw_scatter_p                      1651 15.4    9.275   11.291    9.275   11.291
 ps_implicit_compute_veps            50 10.9    0.291    0.346   10.902   11.085
 gspace_mixing                       48  6.0    0.092    0.124    8.641    8.641
 rs_pw_transfer_PW2RS_200            52 12.8    3.939    4.301    8.321    8.529
 pw_derive                         1200 13.1    7.619    8.342    7.619    8.342
 -------------------------------------------------------------------------------

 The number of warnings for this run is : 1
 
 -------------------------------------------------------------------------------
  **** **** ******  **  PROGRAM ENDED AT                 2023-12-02 06:54:53.607
 ***** ** ***  *** **   PROGRAM RAN ON                                     cu002
 **    ****   ******    PROGRAM RAN BY                                     jxzhu
 ***** **    ** ** **   PROGRAM PROCESS ID                                 40450
  **** **  *******  **  PROGRAM STOPPED IN /public/home/jxzhu/tmp_calc/a13ab029d
                                           6f4925c986c0e0dd84fb59090fab56b/calc/
                                           000900.000/search_hi.000000
