 DBCSR| CPU Multiplication driver                                           XSMM
 DBCSR| Multrec recursion limit                                              512
 DBCSR| Multiplication stack size                                           1000
 DBCSR| Maximum elements for images                                    UNLIMITED
 DBCSR| Multiplicative factor virtual images                                   1
 DBCSR| Use multiplication densification                                       T
 DBCSR| Multiplication size stacks                                             3
 DBCSR| Use memory pool for CPU allocation                                     F
 DBCSR| Number of 3D layers                                               SINGLE
 DBCSR| Use MPI memory allocation                                              F
 DBCSR| Use RMA algorithm                                                      F
 DBCSR| Use Communication thread                                               T
 DBCSR| Communication thread load                                             87
 DBCSR| MPI: My node id                                                        0
 DBCSR| MPI: Number of nodes                                                  32
 DBCSR| OMP: Current number of threads                                         1
 DBCSR| OMP: Max number of threads                                             1
 DBCSR| Split modifier for TAS multiplication algorithm                  1.0E+00


  **** **** ******  **  PROGRAM STARTED AT               2023-12-03 01:37:59.841
 ***** ** ***  *** **   PROGRAM STARTED ON                                 cu042
 **    ****   ******    PROGRAM STARTED BY                                 jxzhu
 ***** **    ** ** **   PROGRAM PROCESS ID                                 61993
  **** **  *******  **  PROGRAM STARTED IN /public/home/jxzhu/tmp_calc/04c0855f9
                                           8753fac23fde4df51ba20f3741a9e9a/calc/
                                           task.001.000002

 CP2K| version string:                                       CP2K version 2022.1
 CP2K| source code revision number:                                  git:2caeb6f
 CP2K| cp2kflags: omp libint fftw3 libxc elpa parallel mpi3 scalapack cosma xsmm
 CP2K|             plumed2 spglib mkl sirius libvori libbqb
 CP2K| is freely available from                            https://www.cp2k.org/
 CP2K| Program compiled at                           Mon Jul 3 17:37:06 CST 2023
 CP2K| Program compiled on                                                 mu003
 CP2K| Program compiled for                                                local
 CP2K| Data directory path                             /public/home/jxzhu/basis/
 CP2K| Input file name                                                 input.inp
 
 GLOBAL| Force Environment number                                              1
 GLOBAL| Basis set file name                                        BASIS_MOLOPT
 GLOBAL| Potential file name                                      GTH_POTENTIALS
 GLOBAL| MM Potential file name                                     MM_POTENTIAL
 GLOBAL| Coordinate file name                                          coord.xyz
 GLOBAL| Method name                                                        CP2K
 GLOBAL| Project name                                                       cp2k
 GLOBAL| Run type                                                   ENERGY_FORCE
 GLOBAL| FFT library                                                       FFTW3
 GLOBAL| Diagonalization library                                            ELPA
 GLOBAL| Minimum number of eigenvectors for ELPA usage                        16
 GLOBAL| Orthonormality check for eigenvectors                          DISABLED
 GLOBAL| Matrix multiplication library                                     COSMA
 GLOBAL| All-to-all communication in single precision                          F
 GLOBAL| FFTs using library dependent lengths                                  T
 GLOBAL| Grid backend                                                       AUTO
 GLOBAL| Global print level                                               MEDIUM
 GLOBAL| MPI I/O enabled                                                       T
 GLOBAL| Total number of message passing processes                            32
 GLOBAL| Number of threads for this process                                    1
 GLOBAL| This output is from process                                           0
 GLOBAL| Stack size for threads created by OpenMP (OMP_STACKSIZE)        default
 GLOBAL| CPU model name                 Intel(R) Xeon(R) Gold 6338 CPU @ 2.00GHz
 GLOBAL| CPUID                                                              1003

 MEMORY| system memory details [Kb]
 MEMORY|                        rank 0           min           max       average
 MEMORY| MemTotal            263619172     263619172     263619172     263619172
 MEMORY| MemFree             173263656     173263656     173263656     173263656
 MEMORY| Buffers                  3320          3320          3320          3320
 MEMORY| Cached                8337348       8337348       8337348       8337348
 MEMORY| Slab                  1853052       1853052       1853052       1853052
 MEMORY| SReclaimable           243316        243316        243316        243316
 MEMORY| MemLikelyFree       181847640     181847640     181847640     181847640


 *** Fundamental physical constants (SI units) ***

 *** Literature: B. J. Mohr and B. N. Taylor,
 ***             CODATA recommended values of the fundamental physical
 ***             constants: 2006, Web Version 5.1
 ***             http://physics.nist.gov/constants

 Speed of light in vacuum [m/s]                             2.99792458000000E+08
 Magnetic constant or permeability of vacuum [N/A**2]       1.25663706143592E-06
 Electric constant or permittivity of vacuum [F/m]          8.85418781762039E-12
 Planck constant (h) [J*s]                                  6.62606896000000E-34
 Planck constant (h-bar) [J*s]                              1.05457162825177E-34
 Elementary charge [C]                                      1.60217648700000E-19
 Electron mass [kg]                                         9.10938215000000E-31
 Electron g factor [ ]                                     -2.00231930436220E+00
 Proton mass [kg]                                           1.67262163700000E-27
 Fine-structure constant                                    7.29735253760000E-03
 Rydberg constant [1/m]                                     1.09737315685270E+07
 Avogadro constant [1/mol]                                  6.02214179000000E+23
 Boltzmann constant [J/K]                                   1.38065040000000E-23
 Atomic mass unit [kg]                                      1.66053878200000E-27
 Bohr radius [m]                                            5.29177208590000E-11

 *** Conversion factors ***

 [u] -> [a.u.]                                              1.82288848426455E+03
 [Angstrom] -> [Bohr] = [a.u.]                              1.88972613288564E+00
 [a.u.] = [Bohr] -> [Angstrom]                              5.29177208590000E-01
 [a.u.] -> [s]                                              2.41888432650478E-17
 [a.u.] -> [fs]                                             2.41888432650478E-02
 [a.u.] -> [J]                                              4.35974393937059E-18
 [a.u.] -> [N]                                              8.23872205491840E-08
 [a.u.] -> [K]                                              3.15774647902944E+05
 [a.u.] -> [kJ/mol]                                         2.62549961709828E+03
 [a.u.] -> [kcal/mol]                                       6.27509468713739E+02
 [a.u.] -> [Pa]                                             2.94210107994716E+13
 [a.u.] -> [bar]                                            2.94210107994716E+08
 [a.u.] -> [atm]                                            2.90362800883016E+08
 [a.u.] -> [eV]                                             2.72113838565563E+01
 [a.u.] -> [Hz]                                             6.57968392072181E+15
 [a.u.] -> [1/cm] (wave numbers)                            2.19474631370540E+05
 [a.u./Bohr**2] -> [1/cm]                                   5.14048714338585E+03
 

 CELL_TOP| Volume [angstrom^3]:                                     12686.086737
 CELL_TOP| Vector a [angstrom    16.869     0.000     0.000   |a| =    16.869000
 CELL_TOP| Vector b [angstrom    -8.434    14.609     0.000   |b| =    16.868929
 CELL_TOP| Vector c [angstrom     0.000     0.000    51.478   |c| =    51.477900
 CELL_TOP| Angle (b,c), alpha [degree]:                                90.000000
 CELL_TOP| Angle (a,c), beta  [degree]:                                90.000000
 CELL_TOP| Angle (a,b), gamma [degree]:                               120.000140
 CELL_TOP| Numerically orthorhombic:                                          NO
 
 GENERATE|  Preliminary Number of Bonds generated:                             0
 GENERATE|  Achieved consistency in connectivity generation.

 CELL| Volume [angstrom^3]:                                         12686.086737
 CELL| Vector a [angstrom]:      16.869     0.000     0.000   |a| =    16.869000
 CELL| Vector b [angstrom]:      -8.434    14.609     0.000   |b| =    16.868929
 CELL| Vector c [angstrom]:       0.000     0.000    51.478   |c| =    51.477900
 CELL| Angle (b,c), alpha [degree]:                                    90.000000
 CELL| Angle (a,c), beta  [degree]:                                    90.000000
 CELL| Angle (a,b), gamma [degree]:                                   120.000140
 CELL| Numerically orthorhombic:                                              NO

 CELL_REF| Volume [angstrom^3]:                                     12686.086737
 CELL_REF| Vector a [angstrom    16.869     0.000     0.000   |a| =    16.869000
 CELL_REF| Vector b [angstrom    -8.434    14.609     0.000   |b| =    16.868929
 CELL_REF| Vector c [angstrom     0.000     0.000    51.478   |c| =    51.477900
 CELL_REF| Angle (b,c), alpha [degree]:                                90.000000
 CELL_REF| Angle (a,c), beta  [degree]:                                90.000000
 CELL_REF| Angle (a,b), gamma [degree]:                               120.000140
 CELL_REF| Numerically orthorhombic:                                          NO

 *******************************************************************************
 *******************************************************************************
 **                                                                           **
 **     #####                         ##              ##                      **
 **    ##   ##            ##          ##              ##                      **
 **   ##     ##                       ##            ######                    **
 **   ##     ##  ##   ##  ##   #####  ##  ##   ####   ##    #####    #####    **
 **   ##     ##  ##   ##  ##  ##      ## ##   ##      ##   ##   ##  ##   ##   **
 **   ##  ## ##  ##   ##  ##  ##      ####     ###    ##   ######   ######    **
 **    ##  ###   ##   ##  ##  ##      ## ##      ##   ##   ##       ##        **
 **     #######   #####   ##   #####  ##  ##  ####    ##    #####   ##        **
 **           ##                                                    ##        **
 **                                                                           **
 **                                                ... make the atoms dance   **
 **                                                                           **
 **            Copyright (C) by CP2K developers group (2000-2022)             **
 **                      J. Chem. Phys. 152, 194103 (2020)                    **
 **                                                                           **
 *******************************************************************************

 DFT| Spin restricted Kohn-Sham (RKS) calculation                            RKS
 DFT| Multiplicity                                                             1
 DFT| Number of spin states                                                    1
 DFT| Charge                                                                   0
 DFT| Self-interaction correction (SIC)                                       NO
 DFT| Cutoffs: density                                              1.000000E-10
 DFT|          gradient                                             1.000000E-10
 DFT|          tau                                                  1.000000E-10
 DFT|          cutoff_smoothing_range                               0.000000E+00
 DFT| XC density smoothing                                                  NONE
 DFT| XC derivatives                                                          PW

 FUNCTIONAL| PBE:
 FUNCTIONAL| J.P.Perdew, K.Burke, M.Ernzerhof, Phys. Rev. Letter, vol. 77, n 18,
 FUNCTIONAL|  pp. 3865-3868, (1996){spin unpolarized}                           

 vdW POTENTIAL|                                                   Pair Potential
 vdW POTENTIAL|          DFT-D3 (Version 3.1)
 vdW POTENTIAL|          Potential Form: S. Grimme et al, JCP 132: 154104 (2010)
 vdW POTENTIAL|          Zero Damping
 vdW POTENTIAL|          Cutoff Radius [Bohr]:                             20.00
 vdW POTENTIAL|          s6 Scaling Factor:                               1.0000
 vdW POTENTIAL|          sr6 Scaling Factor:                              1.2170
 vdW POTENTIAL|          s8 Scaling Factor:                               0.7220
 vdW POTENTIAL|          Cutoff for CN calculation:                   0.1000E-05

 QS| Method:                                                                 GPW
 QS| Density plane wave grid type                        NON-SPHERICAL FULLSPACE
 QS| Number of grid levels:                                                    4
 QS| Density cutoff [a.u.]:                                                200.0
 QS| Multi grid cutoff [a.u.]: 1) grid level                               200.0
 QS|                           2) grid level                                66.7
 QS|                           3) grid level                                22.2
 QS|                           4) grid level                                 7.4
 QS| Grid level progression factor:                                          3.0
 QS| Relative density cutoff [a.u.]:                                        20.0
 QS| Interaction thresholds: eps_pgf_orb:                                3.2E-07
 QS|                         eps_filter_matrix:                          0.0E+00
 QS|                         eps_core_charge:                            1.0E-15
 QS|                         eps_rho_gspace:                             1.0E-13
 QS|                         eps_rho_rspace:                             1.0E-13
 QS|                         eps_gvg_rspace:                             3.2E-07
 QS|                         eps_ppl:                                    1.0E-02
 QS|                         eps_ppnl:                                   3.2E-09


 ATOMIC KIND INFORMATION

  1. Atomic kind: Pt                                    Number of atoms:     216

     Orbital Basis Set                      DZVP-A5-Q10-323-MOL-T1-DERIVED_SET-1

       Number of orbital shell sets:                                           1
       Number of orbital shells:                                               6
       Number of primitive Cartesian functions:                                5
       Number of Cartesian basis functions:                                   23
       Number of spherical basis functions:                                   20
       Norm type:                                                              2

       Normalised Cartesian orbitals:

                        Set   Shell   Orbital            Exponent    Coefficient

                          1       1    2s                2.521825       0.177473
                                                         1.453920      -0.063399
                                                         0.614053      -0.407089
                                                         0.232656       0.262254
                                                         0.074788       0.047371

                          1       2    3s                2.521825      -0.049056
                                                         1.453920       0.044904
                                                         0.614053      -0.009756
                                                         0.232656      -0.144709
                                                         0.074788       0.144085

                          1       3    3px               2.521825      -0.317572
                                                         1.453920       0.534826
                                                         0.614053      -0.489458
                                                         0.232656       0.245631
                                                         0.074788       0.018221
                          1       3    3py               2.521825      -0.317572
                                                         1.453920       0.534826
                                                         0.614053      -0.489458
                                                         0.232656       0.245631
                                                         0.074788       0.018221
                          1       3    3pz               2.521825      -0.317572
                                                         1.453920       0.534826
                                                         0.614053      -0.489458
                                                         0.232656       0.245631
                                                         0.074788       0.018221

                          1       4    4dx2              2.521825       3.008522
                                                         1.453920      -1.224251
                                                         0.614053       0.225691
                                                         0.232656       0.125144
                                                         0.074788      -0.015348
                          1       4    4dxy              2.521825       5.210912
                                                         1.453920      -2.120465
                                                         0.614053       0.390909
                                                         0.232656       0.216756
                                                         0.074788      -0.026584
                          1       4    4dxz              2.521825       5.210912
                                                         1.453920      -2.120465
                                                         0.614053       0.390909
                                                         0.232656       0.216756
                                                         0.074788      -0.026584
                          1       4    4dy2              2.521825       3.008522
                                                         1.453920      -1.224251
                                                         0.614053       0.225691
                                                         0.232656       0.125144
                                                         0.074788      -0.015348
                          1       4    4dyz              2.521825       5.210912
                                                         1.453920      -2.120465
                                                         0.614053       0.390909
                                                         0.232656       0.216756
                                                         0.074788      -0.026584
                          1       4    4dz2              2.521825       3.008522
                                                         1.453920      -1.224251
                                                         0.614053       0.225691
                                                         0.232656       0.125144
                                                         0.074788      -0.015348

                          1       5    5dx2              2.521825       0.698026
                                                         1.453920      -1.511486
                                                         0.614053      -0.335394
                                                         0.232656      -0.025564
                                                         0.074788      -0.002699
                          1       5    5dxy              2.521825       1.209017
                                                         1.453920      -2.617970
                                                         0.614053      -0.580920
                                                         0.232656      -0.044277
                                                         0.074788      -0.004674
                          1       5    5dxz              2.521825       1.209017
                                                         1.453920      -2.617970
                                                         0.614053      -0.580920
                                                         0.232656      -0.044277
                                                         0.074788      -0.004674
                          1       5    5dy2              2.521825       0.698026
                                                         1.453920      -1.511486
                                                         0.614053      -0.335394
                                                         0.232656      -0.025564
                                                         0.074788      -0.002699
                          1       5    5dyz              2.521825       1.209017
                                                         1.453920      -2.617970
                                                         0.614053      -0.580920
                                                         0.232656      -0.044277
                                                         0.074788      -0.004674
                          1       5    5dz2              2.521825       0.698026
                                                         1.453920      -1.511486
                                                         0.614053      -0.335394
                                                         0.232656      -0.025564
                                                         0.074788      -0.002699

                          1       6    6dx2              2.521825       0.831079
                                                         1.453920      -0.709226
                                                         0.614053      -0.137351
                                                         0.232656       0.068642
                                                         0.074788       0.011745
                          1       6    6dxy              2.521825       1.439472
                                                         1.453920      -1.228415
                                                         0.614053      -0.237899
                                                         0.232656       0.118891
                                                         0.074788       0.020343
                          1       6    6dxz              2.521825       1.439472
                                                         1.453920      -1.228415
                                                         0.614053      -0.237899
                                                         0.232656       0.118891
                                                         0.074788       0.020343
                          1       6    6dy2              2.521825       0.831079
                                                         1.453920      -0.709226
                                                         0.614053      -0.137351
                                                         0.232656       0.068642
                                                         0.074788       0.011745
                          1       6    6dyz              2.521825       1.439472
                                                         1.453920      -1.228415
                                                         0.614053      -0.237899
                                                         0.232656       0.118891
                                                         0.074788       0.020343
                          1       6    6dz2              2.521825       0.831079
                                                         1.453920      -0.709226
                                                         0.614053      -0.137351
                                                         0.232656       0.068642
                                                         0.074788       0.011745

       Atomic covalent radius [Angstrom]:                                  1.300

       Atomic van der Waals radius [Angstrom]:                             1.750

     GTH Potential information for                                   GTH-PBE-q10

       Description:                       Goedecker-Teter-Hutter pseudopotential
                                           Goedecker et al., PRB 54, 1703 (1996)
                                          Hartwigsen et al., PRB 58, 3641 (1998)
                                                      Krack, TCA 114, 145 (2005)

       Gaussian exponent of the core charge distribution:               1.317676
       Electronic configuration (s p d ...):                           1   0   9

       Parameters of the local part of the GTH pseudopotential:

                          rloc        C1          C2          C3          C4
                        0.616000   11.313635

       Parameters of the non-local part of the GTH pseudopotential:

                   l      r(l)      h(i,j,l)

                   0    0.550904    4.733491   -1.784594
                                   -1.784594    2.303901
                   1    0.674138    2.534798   -1.778066
                                   -1.778066    2.103836
                   2    0.457392   -7.264011    2.558665
                                    2.558665   -2.901253


 MOLECULE KIND INFORMATION


 All atoms are their own molecule, skipping detailed information


 TOTAL NUMBERS AND MAXIMUM NUMBERS

  Total number of            - Atomic kinds:                                   1
                             - Atoms:                                        216
                             - Shell sets:                                   216
                             - Shells:                                      1296
                             - Primitive Cartesian functions:               1080
                             - Cartesian basis functions:                   4968
                             - Spherical basis functions:                   4320

  Maximum angular momentum of- Orbital basis functions:                        2
                             - Local part of the GTH pseudopotential:          0
                             - Non-local part of the GTH pseudopotential:      4


 MODULE QUICKSTEP:  ATOMIC COORDINATES IN angstrom

 Atom  Kind  Element       X           Y           Z          Z(eff)       Mass
    1   1 Pt  78       2.239986    0.514470   20.064934      10.0000    195.0840
    2   1 Pt  78       5.079986    0.304470   19.994934      10.0000    195.0840
    3   1 Pt  78       7.869986    0.454470   20.064934      10.0000    195.0840
    4   1 Pt  78      10.569987    0.434470   20.044937      10.0000    195.0840
    5   1 Pt  78      13.379986    0.464470   20.114937      10.0000    195.0840
    6   1 Pt  78      16.289986    0.384470   20.124935      10.0000    195.0840
    7   1 Pt  78       3.659986    2.884471   19.954937      10.0000    195.0840
    8   1 Pt  78       6.419986    3.004471   19.914936      10.0000    195.0840
    9   1 Pt  78       9.249987    2.854471   20.134934      10.0000    195.0840
   10   1 Pt  78      12.049986    2.864471   20.074932      10.0000    195.0840
   11   1 Pt  78      14.789987    2.974470   20.104935      10.0000    195.0840
   12   1 Pt  78       0.749986    2.964470   19.894936      10.0000    195.0840
   13   1 Pt  78       4.959986    5.494471   20.004933      10.0000    195.0840
   14   1 Pt  78       7.809986    5.414471   20.004933      10.0000    195.0840
   15   1 Pt  78      10.509986    5.354471   20.124935      10.0000    195.0840
   16   1 Pt  78      13.339987    5.314471   20.144936      10.0000    195.0840
   17   1 Pt  78      -0.600014    5.354471   19.954937      10.0000    195.0840
   18   1 Pt  78       2.149986    5.374471   19.724934      10.0000    195.0840
   19   1 Pt  78       6.319986    7.934471   20.124935      10.0000    195.0840
   20   1 Pt  78       9.129986    7.794471   19.854935      10.0000    195.0840
   21   1 Pt  78      12.019986    7.764471   19.974934      10.0000    195.0840
   22   1 Pt  78      -2.060014    7.684471   20.054936      10.0000    195.0840
   23   1 Pt  78       0.779986    7.724471   19.934933      10.0000    195.0840
   24   1 Pt  78       3.579986    7.814470   19.974934      10.0000    195.0840
   25   1 Pt  78       7.849986   10.274470   19.874935      10.0000    195.0840
   26   1 Pt  78      10.689988   10.254471   19.964935      10.0000    195.0840
   27   1 Pt  78      -3.420014   10.274470   19.994934      10.0000    195.0840
   28   1 Pt  78      -0.600014   10.124471   20.074932      10.0000    195.0840
   29   1 Pt  78       2.129986   10.184471   20.004933      10.0000    195.0840
   30   1 Pt  78       4.989986   10.154470   19.924935      10.0000    195.0840
   31   1 Pt  78       9.319987   12.724470   20.054936      10.0000    195.0840
   32   1 Pt  78      -4.810014   12.714472   19.884937      10.0000    195.0840
   33   1 Pt  78      -2.020014   12.594471   20.014935      10.0000    195.0840
   34   1 Pt  78       0.859986   12.514471   20.014935      10.0000    195.0840
   35   1 Pt  78       3.659986   12.614471   19.904934      10.0000    195.0840
   36   1 Pt  78       6.469986   12.714472   19.944935      10.0000    195.0840
   37   1 Pt  78       0.769986    1.234470   22.364933      10.0000    195.0840
   38   1 Pt  78       3.679986    1.344471   22.294933      10.0000    195.0840
   39   1 Pt  78       6.439987    1.304470   22.224934      10.0000    195.0840
   40   1 Pt  78       9.169986    1.084470   22.484936      10.0000    195.0840
   41   1 Pt  78      12.119987    1.214470   22.394936      10.0000    195.0840
   42   1 Pt  78      14.879986    1.304470   22.414936      10.0000    195.0840
   43   1 Pt  78       2.119986    3.724471   22.144936      10.0000    195.0840
   44   1 Pt  78       4.999986    3.744471   22.284935      10.0000    195.0840
   45   1 Pt  78       7.789986    3.784471   22.414936      10.0000    195.0840
   46   1 Pt  78      10.559986    3.684470   22.474934      10.0000    195.0840
   47   1 Pt  78      13.379986    3.724471   22.444935      10.0000    195.0840
   48   1 Pt  78      -0.650014    3.694471   22.314938      10.0000    195.0840
   49   1 Pt  78       3.499986    6.124471   22.264935      10.0000    195.0840
   50   1 Pt  78       6.309986    6.204471   22.374935      10.0000    195.0840
   51   1 Pt  78       9.119986    6.204471   22.334934      10.0000    195.0840
   52   1 Pt  78      11.939988    6.154470   22.294933      10.0000    195.0840
   53   1 Pt  78      -1.960014    6.074471   22.374935      10.0000    195.0840
   54   1 Pt  78       0.819986    6.114471   22.264935      10.0000    195.0840
   55   1 Pt  78       4.859986    8.584471   22.394936      10.0000    195.0840
   56   1 Pt  78       7.729987    8.654470   22.274933      10.0000    195.0840
   57   1 Pt  78      10.519986    8.554471   22.204933      10.0000    195.0840
   58   1 Pt  78      -3.400014    8.654470   22.274933      10.0000    195.0840
   59   1 Pt  78      -0.620014    8.474470   22.384937      10.0000    195.0840
   60   1 Pt  78       2.109986    8.514471   22.434933      10.0000    195.0840
   61   1 Pt  78       6.429986   10.944471   22.164936      10.0000    195.0840
   62   1 Pt  78       9.079986   11.094471   22.274933      10.0000    195.0840
   63   1 Pt  78      -4.940015   10.994471   22.284935      10.0000    195.0840
   64   1 Pt  78      -2.040014   11.034471   22.314938      10.0000    195.0840
   65   1 Pt  78       0.749986   10.924471   22.464935      10.0000    195.0840
   66   1 Pt  78       3.569986   10.974471   22.284935      10.0000    195.0840
   67   1 Pt  78       7.799986   13.494471   22.444935      10.0000    195.0840
   68   1 Pt  78      -6.210014   13.484471   22.334934      10.0000    195.0840
   69   1 Pt  78      -3.490014   13.514471   22.304936      10.0000    195.0840
   70   1 Pt  78      -0.650014   13.334471   22.314938      10.0000    195.0840
   71   1 Pt  78       2.169986   13.364471   22.424935      10.0000    195.0840
   72   1 Pt  78       4.999986   13.374472   22.334934      10.0000    195.0840
   73   1 Pt  78      -7.730014   14.204471   24.614933      10.0000    195.0840
   74   1 Pt  78      -4.890014   14.284471   24.504936      10.0000    195.0840
   75   1 Pt  78      -2.040014   14.204471   24.614933      10.0000    195.0840
   76   1 Pt  78       0.709986   14.154470   24.644936      10.0000    195.0840
   77   1 Pt  78       3.499986   14.204471   24.684933      10.0000    195.0840
   78   1 Pt  78       6.329986   14.304470   24.704937      10.0000    195.0840
   79   1 Pt  78       2.139986    2.164470   24.594936      10.0000    195.0840
   80   1 Pt  78       4.939986    2.144470   24.584934      10.0000    195.0840
   81   1 Pt  78       7.719986    2.124471   24.674935      10.0000    195.0840
   82   1 Pt  78      10.599986    1.924470   24.694935      10.0000    195.0840
   83   1 Pt  78      13.439987    2.064471   24.754933      10.0000    195.0840
   84   1 Pt  78      -0.620014    2.064471   24.604935      10.0000    195.0840
   85   1 Pt  78       3.629986    4.544471   24.534935      10.0000    195.0840
   86   1 Pt  78       6.349986    4.574471   24.644936      10.0000    195.0840
   87   1 Pt  78       9.249987    4.574471   24.724934      10.0000    195.0840
   88   1 Pt  78      11.969986    4.464470   24.684933      10.0000    195.0840
   89   1 Pt  78      -2.040014    4.444470   24.654934      10.0000    195.0840
   90   1 Pt  78       0.789986    4.494471   24.654934      10.0000    195.0840
   91   1 Pt  78       4.939986    6.994471   24.584934      10.0000    195.0840
   92   1 Pt  78       7.759987    6.944470   24.624935      10.0000    195.0840
   93   1 Pt  78      10.589986    7.054471   24.544933      10.0000    195.0840
   94   1 Pt  78      -3.530014    6.944470   24.624935      10.0000    195.0840
   95   1 Pt  78      -0.600014    6.904470   24.684933      10.0000    195.0840
   96   1 Pt  78       2.129986    6.874471   24.644936      10.0000    195.0840
   97   1 Pt  78       6.339986    9.454471   24.654934      10.0000    195.0840
   98   1 Pt  78       9.179986    9.314471   24.524937      10.0000    195.0840
   99   1 Pt  78      -4.930014    9.374471   24.514935      10.0000    195.0840
  100   1 Pt  78      -2.010014    9.284471   24.514935      10.0000    195.0840
  101   1 Pt  78       0.859986    9.294471   24.724934      10.0000    195.0840
  102   1 Pt  78       3.529986    9.424471   24.724934      10.0000    195.0840
  103   1 Pt  78       7.699986   11.864471   24.644936      10.0000    195.0840
  104   1 Pt  78      -6.350014   11.774471   24.494934      10.0000    195.0840
  105   1 Pt  78      -3.450014   11.784471   24.584934      10.0000    195.0840
  106   1 Pt  78      -0.710014   11.764471   24.604935      10.0000    195.0840
  107   1 Pt  78       2.099986   11.814471   24.724934      10.0000    195.0840
  108   1 Pt  78       4.899986   11.874472   24.634937      10.0000    195.0840
  109   1 Pt  78       2.119986    0.464470   26.802934      10.0000    195.0840
  110   1 Pt  78       4.999986    0.354470   26.812933      10.0000    195.0840
  111   1 Pt  78       7.729987    0.374470   26.952934      10.0000    195.0840
  112   1 Pt  78      10.469986    0.454470   26.992933      10.0000    195.0840
  113   1 Pt  78      13.259987    0.384470   27.012933      10.0000    195.0840
  114   1 Pt  78      16.119987    0.434470   26.972933      10.0000    195.0840
  115   1 Pt  78       3.599986    2.844471   26.962933      10.0000    195.0840
  116   1 Pt  78       6.299986    2.864471   26.972933      10.0000    195.0840
  117   1 Pt  78       8.999986    2.914471   26.992933      10.0000    195.0840
  118   1 Pt  78      11.879986    2.804471   26.982933      10.0000    195.0840
  119   1 Pt  78      14.689987    2.814471   27.042933      10.0000    195.0840
  120   1 Pt  78       0.719986    2.804471   26.952934      10.0000    195.0840
  121   1 Pt  78       4.919986    5.294471   26.882934      10.0000    195.0840
  122   1 Pt  78       7.719986    5.464470   26.892933      10.0000    195.0840
  123   1 Pt  78      10.459986    5.384470   26.962933      10.0000    195.0840
  124   1 Pt  78      13.219986    5.254471   26.982933      10.0000    195.0840
  125   1 Pt  78      -0.680014    5.244471   26.922933      10.0000    195.0840
  126   1 Pt  78       2.249986    5.184471   26.912934      10.0000    195.0840
  127   1 Pt  78       6.299986    7.824471   26.932934      10.0000    195.0840
  128   1 Pt  78       9.129986    7.794471   26.922933      10.0000    195.0840
  129   1 Pt  78      11.959987    7.764471   26.892933      10.0000    195.0840
  130   1 Pt  78      -2.170014    7.644470   26.932934      10.0000    195.0840
  131   1 Pt  78       0.719986    7.654471   26.932934      10.0000    195.0840
  132   1 Pt  78       3.579986    7.754471   26.982933      10.0000    195.0840
  133   1 Pt  78       7.689987   10.224470   26.862933      10.0000    195.0840
  134   1 Pt  78      10.499987   10.184471   26.822934      10.0000    195.0840
  135   1 Pt  78      -3.490014   10.124471   26.862933      10.0000    195.0840
  136   1 Pt  78      -0.700014   10.074471   26.972933      10.0000    195.0840
  137   1 Pt  78       2.039986   10.174471   27.092933      10.0000    195.0840
  138   1 Pt  78       4.849986   10.214472   26.942934      10.0000    195.0840
  139   1 Pt  78       9.079986   12.654470   26.922933      10.0000    195.0840
  140   1 Pt  78      -4.940015   12.554471   26.732933      10.0000    195.0840
  141   1 Pt  78      -2.080014   12.534472   26.892933      10.0000    195.0840
  142   1 Pt  78       0.609986   12.534472   26.982933      10.0000    195.0840
  143   1 Pt  78       3.369986   12.674471   27.082934      10.0000    195.0840
  144   1 Pt  78       6.219986   12.664472   27.012933      10.0000    195.0840
  145   1 Pt  78       0.669986    1.144470   29.412934      10.0000    195.0840
  146   1 Pt  78       3.579986    1.204470   29.152934      10.0000    195.0840
  147   1 Pt  78       6.389986    1.294470   29.222934      10.0000    195.0840
  148   1 Pt  78       9.039986    1.244471   29.232933      10.0000    195.0840
  149   1 Pt  78      11.829987    1.274471   29.312933      10.0000    195.0840
  150   1 Pt  78      14.679986    1.274471   29.262933      10.0000    195.0840
  151   1 Pt  78       2.029986    3.534471   29.262933      10.0000    195.0840
  152   1 Pt  78       4.809986    3.654470   29.322934      10.0000    195.0840
  153   1 Pt  78       7.709986    3.794471   29.312933      10.0000    195.0840
  154   1 Pt  78      10.459986    3.734470   29.292934      10.0000    195.0840
  155   1 Pt  78      13.269986    3.684470   29.352934      10.0000    195.0840
  156   1 Pt  78      -0.660014    3.554471   29.192934      10.0000    195.0840
  157   1 Pt  78       3.439986    6.064470   29.302934      10.0000    195.0840
  158   1 Pt  78       6.299986    6.284471   29.162934      10.0000    195.0840
  159   1 Pt  78       9.009986    6.204471   29.352934      10.0000    195.0840
  160   1 Pt  78      11.829987    6.224471   29.182934      10.0000    195.0840
  161   1 Pt  78      -2.130014    6.014471   29.262933      10.0000    195.0840
  162   1 Pt  78       0.679986    5.994471   29.232933      10.0000    195.0840
  163   1 Pt  78       4.919986    8.534471   29.362934      10.0000    195.0840
  164   1 Pt  78       7.719986    8.684471   29.282934      10.0000    195.0840
  165   1 Pt  78      10.549986    8.724471   29.262933      10.0000    195.0840
  166   1 Pt  78      -3.530014    8.484471   29.352934      10.0000    195.0840
  167   1 Pt  78      -0.720014    8.374471   29.292934      10.0000    195.0840
  168   1 Pt  78       2.119986    8.504471   29.232933      10.0000    195.0840
  169   1 Pt  78       6.249986   11.014471   29.172934      10.0000    195.0840
  170   1 Pt  78       9.079986   11.064470   29.152934      10.0000    195.0840
  171   1 Pt  78      -4.930014   10.924471   29.032933      10.0000    195.0840
  172   1 Pt  78      -2.110014   10.864471   29.242933      10.0000    195.0840
  173   1 Pt  78       0.659986   10.884470   29.372934      10.0000    195.0840
  174   1 Pt  78       3.469986   10.924471   29.302934      10.0000    195.0840
  175   1 Pt  78       7.589986   13.434471   29.292934      10.0000    195.0840
  176   1 Pt  78      -6.320015   13.414471   29.172934      10.0000    195.0840
  177   1 Pt  78      -3.570014   13.424471   29.092934      10.0000    195.0840
  178   1 Pt  78      -0.730014   13.264471   29.272934      10.0000    195.0840
  179   1 Pt  78       1.939986   13.374472   29.282934      10.0000    195.0840
  180   1 Pt  78       4.719986   13.464471   29.312933      10.0000    195.0840
  181   1 Pt  78      -8.010014   14.224472   31.622934      10.0000    195.0840
  182   1 Pt  78      -4.980014   14.124471   31.482934      10.0000    195.0840
  183   1 Pt  78      -2.240014   14.194471   31.462934      10.0000    195.0840
  184   1 Pt  78       0.669986   14.134471   31.592934      10.0000    195.0840
  185   1 Pt  78       3.329986   14.214471   31.642933      10.0000    195.0840
  186   1 Pt  78       6.109987   14.224472   31.682934      10.0000    195.0840
  187   1 Pt  78       2.119986    2.014471   31.562934      10.0000    195.0840
  188   1 Pt  78       4.979986    1.984470   31.542934      10.0000    195.0840
  189   1 Pt  78       7.749986    2.044470   31.592934      10.0000    195.0840
  190   1 Pt  78      10.419986    2.014471   31.552934      10.0000    195.0840
  191   1 Pt  78      13.309986    2.034470   31.752934      10.0000    195.0840
  192   1 Pt  78      -0.860014    2.074471   31.612934      10.0000    195.0840
  193   1 Pt  78       3.449986    4.354470   31.622934      10.0000    195.0840
  194   1 Pt  78       6.199986    4.604471   31.482934      10.0000    195.0840
  195   1 Pt  78       9.039986    4.604471   31.742934      10.0000    195.0840
  196   1 Pt  78      11.759987    4.454471   31.462934      10.0000    195.0840
  197   1 Pt  78      -2.110014    4.484470   31.572934      10.0000    195.0840
  198   1 Pt  78       0.709986    4.494471   31.572934      10.0000    195.0840
  199   1 Pt  78       4.729987    6.894471   31.692934      10.0000    195.0840
  200   1 Pt  78       7.519986    6.984470   31.742934      10.0000    195.0840
  201   1 Pt  78      10.319987    6.954471   31.722934      10.0000    195.0840
  202   1 Pt  78      -3.630014    6.884471   31.532934      10.0000    195.0840
  203   1 Pt  78      -0.830014    6.914471   31.622934      10.0000    195.0840
  204   1 Pt  78       1.989986    6.864471   31.492934      10.0000    195.0840
  205   1 Pt  78       6.189986    9.364471   31.622934      10.0000    195.0840
  206   1 Pt  78       8.959987    9.374471   31.612934      10.0000    195.0840
  207   1 Pt  78      -5.120014    9.284471   31.602933      10.0000    195.0840
  208   1 Pt  78      -2.220014    9.264471   31.482934      10.0000    195.0840
  209   1 Pt  78       0.609986    9.274471   31.662934      10.0000    195.0840
  210   1 Pt  78       3.459986    9.274471   31.662934      10.0000    195.0840
  211   1 Pt  78       7.539986   11.754471   31.602933      10.0000    195.0840
  212   1 Pt  78      -6.520014   11.814471   31.402934      10.0000    195.0840
  213   1 Pt  78      -3.730014   11.734470   31.472934      10.0000    195.0840
  214   1 Pt  78      -0.820014   11.614471   31.692934      10.0000    195.0840
  215   1 Pt  78       2.049986   11.704471   31.642933      10.0000    195.0840
  216   1 Pt  78       4.839986   11.744472   31.562934      10.0000    195.0840




 SCF PARAMETERS         Density guess:                                   RESTART
                        --------------------------------------------------------
                        max_scf:                                             500
                        max_scf_history:                                       0
                        max_diis:                                              4
                        --------------------------------------------------------
                        eps_scf:                                        1.00E-06
                        eps_scf_history:                                0.00E+00
                        eps_diis:                                       1.00E-01
                        eps_eigval:                                     1.00E-05
                        --------------------------------------------------------
                        level_shift [a.u.]:                             0.000000
                        added MOs                                       500    0
                        --------------------------------------------------------
                        Mixing method:                            BROYDEN_MIXING
                                                charge density mixing in g-space
                        --------------------------------------------------------
                        Smear method:                                FERMI_DIRAC
                        Electronic temperature [K]:                        300.0
                        Electronic temperature [a.u.]:                  9.50E-04
                        Accuracy threshold:                             1.00E-10
                        --------------------------------------------------------
                        No outer SCF

 PW_GRID| Information for grid number                                          1
 PW_GRID| Grid distributed over                                    32 processors
 PW_GRID| Real space group dimensions                                    32    1
 PW_GRID| the grid is blocked:                                                NO
 PW_GRID| Cutoff [a.u.]                                                    200.0
 PW_GRID| spherical cutoff:                                                   NO
 PW_GRID|   Bounds   1           -105     104                Points:         210
 PW_GRID|   Bounds   2           -105     104                Points:         210
 PW_GRID|   Bounds   3           -315     314                Points:         630
 PW_GRID| Volume element (a.u.^3)  0.3081E-02     Volume (a.u.^3)     85609.9578
 PW_GRID| Grid span                                                    FULLSPACE
 PW_GRID|   Distribution                         Average         Max         Min
 PW_GRID|   G-Vectors                           868218.8      868350      868140
 PW_GRID|   G-Rays                                4134.4        4135        4134
 PW_GRID|   Real Space Points                   868218.8      926100      793800

 PW_GRID| Information for grid number                                          2
 PW_GRID| Number of the reference grid                                         1
 PW_GRID| Grid distributed over                                    32 processors
 PW_GRID| Real space group dimensions                                    32    1
 PW_GRID| the grid is blocked:                                                NO
 PW_GRID| Cutoff [a.u.]                                                     66.7
 PW_GRID| spherical cutoff:                                                   NO
 PW_GRID|   Bounds   1            -60      59                Points:         120
 PW_GRID|   Bounds   2            -60      59                Points:         120
 PW_GRID|   Bounds   3           -180     179                Points:         360
 PW_GRID| Volume element (a.u.^3)  0.1651E-01     Volume (a.u.^3)     85609.9578
 PW_GRID| Grid span                                                    FULLSPACE
 PW_GRID|   Distribution                         Average         Max         Min
 PW_GRID|   G-Vectors                           162000.0      162840      161280
 PW_GRID|   G-Rays                                1350.0        1357        1344
 PW_GRID|   Real Space Points                   162000.0      172800      129600

 PW_GRID| Information for grid number                                          3
 PW_GRID| Number of the reference grid                                         1
 PW_GRID| Grid distributed over                                    32 processors
 PW_GRID| Real space group dimensions                                    32    1
 PW_GRID| the grid is blocked:                                                NO
 PW_GRID| Cutoff [a.u.]                                                     22.2
 PW_GRID| spherical cutoff:                                                   NO
 PW_GRID|   Bounds   1            -35      34                Points:          70
 PW_GRID|   Bounds   2            -35      34                Points:          70
 PW_GRID|   Bounds   3           -105     104                Points:         210
 PW_GRID| Volume element (a.u.^3)  0.8320E-01     Volume (a.u.^3)     85609.9578
 PW_GRID| Grid span                                                    FULLSPACE
 PW_GRID|   Distribution                         Average         Max         Min
 PW_GRID|   G-Vectors                            32156.2       32340       31990
 PW_GRID|   G-Rays                                 459.4         462         457
 PW_GRID|   Real Space Points                    32156.2       44100       29400

 PW_GRID| Information for grid number                                          4
 PW_GRID| Number of the reference grid                                         1
 PW_GRID| Grid distributed over                                    32 processors
 PW_GRID| Real space group dimensions                                    32    1
 PW_GRID| the grid is blocked:                                                NO
 PW_GRID| Cutoff [a.u.]                                                      7.4
 PW_GRID| spherical cutoff:                                                   NO
 PW_GRID|   Bounds   1            -20      19                Points:          40
 PW_GRID|   Bounds   2            -20      19                Points:          40
 PW_GRID|   Bounds   3            -60      59                Points:         120
 PW_GRID| Volume element (a.u.^3)  0.4459         Volume (a.u.^3)     85609.9578
 PW_GRID| Grid span                                                    FULLSPACE
 PW_GRID|   Distribution                         Average         Max         Min
 PW_GRID|   G-Vectors                             6000.0        6120        5920
 PW_GRID|   G-Rays                                 150.0         153         148
 PW_GRID|   Real Space Points                     6000.0        9600        4800

 POISSON| Solver                                          IMPLICIT (GENERALIZED)
 POISSON| Boundary Condition                                PERIODIC & DIRICHLET
 POISSON| Maximum number of iterations                                        30
 POISSON| Convergence threshold                                         1.00E-08
 POISSON| Dielectric Constant                                              80.00
 POISSON| Relaxation parameter                                          1.00E+00

 RS_GRID| Information for grid number                                          1
 RS_GRID|   Bounds   1           -105     104                Points:         210
 RS_GRID|   Bounds   2           -105     104                Points:         210
 RS_GRID|   Bounds   3           -315     314                Points:         630
 RS_GRID| Real space distribution over                                 32 groups
 RS_GRID| Real space distribution along direction                              3
 RS_GRID| Border size                                                         54
 RS_GRID|   Distribution                         Average         Max         Min
 RS_GRID|   Planes                                 127.7         128         127

 RS_GRID| Information for grid number                                          2
 RS_GRID|   Bounds   1            -60      59                Points:         120
 RS_GRID|   Bounds   2            -60      59                Points:         120
 RS_GRID|   Bounds   3           -180     179                Points:         360
 RS_GRID| Real space distribution over                                 32 groups
 RS_GRID| Real space distribution along direction                              3
 RS_GRID| Border size                                                         36
 RS_GRID|   Distribution                         Average         Max         Min
 RS_GRID|   Planes                                  83.2          84          83

 RS_GRID| Information for grid number                                          3
 RS_GRID|   Bounds   1            -35      34                Points:          70
 RS_GRID|   Bounds   2            -35      34                Points:          70
 RS_GRID|   Bounds   3           -105     104                Points:         210
 RS_GRID| Real space fully replicated
 RS_GRID| Group size                                                           1

 RS_GRID| Information for grid number                                          4
 RS_GRID|   Bounds   1            -20      19                Points:          40
 RS_GRID|   Bounds   2            -20      19                Points:          40
 RS_GRID|   Bounds   3            -60      59                Points:         120
 RS_GRID| Real space fully replicated
 RS_GRID| Group size                                                           1

 Number of electrons:                                                       2160
 Number of occupied orbitals:                                               1080
 Number of molecular orbitals:                                              1580

 Number of orbital functions:                                               4320
 Number of independent orbital functions:                                   4320

 Extrapolation method: initial_guess


 SCF WAVEFUNCTION OPTIMIZATION

  Step     Update method      Time    Convergence         Total energy    Change
  ------------------------------------------------------------------------------

  POISSON| IMPLICIT (GENERALIZED) SOLVER ---------------------------------------
  POISSON| Preparing Dirichlet regions ...
  POISSON| Dirichlet region    1
  POISSON|     type : axis-aligned planar
  POISSON|     applied potential :   0.0000E+00  [Eh/e]
  POISSON| Dirichlet region    2
  POISSON|     type : axis-aligned planar
  POISSON|     applied potential :   0.0000E+00  [Eh/e]
  POISSON| ... Done. 
  ------------------------------------------------------------------------------

  POISSON|   iter        pres error      nabs error        E_hartree    delta E
  POISSON|      1        0.1868E-05      0.3302E-01    1992.0729625043  0.20E+04
  POISSON|      2        0.1122E-14      0.1868E-05    1992.0729625043  0.23E-10
  POISSON| Poisson solver converged in 2 iterations.
     1 NoMix/Diag. 0.30E+00   11.1     0.16087292     -5671.0501005243 -5.67E+03
  POISSON|   iter        pres error      nabs error        E_hartree    delta E
  POISSON|      1        0.4549E-04      0.3284E-01    1992.0205749774 -0.52E-01
  POISSON|      2        0.8529E-15      0.4549E-04    1992.0205749775  0.23E-10
  POISSON| Poisson solver converged in 2 iterations.
     2 Broy./Diag. 0.30E+00   13.2     0.19206165     -5671.4541172241 -4.04E-01
  POISSON|   iter        pres error      nabs error        E_hartree    delta E
  POISSON|      1        0.1090E-03      0.4811E-03    1992.1585650737  0.14E+00
  POISSON|      2        0.5519E-17      0.1090E-03    1992.1585650737  0.68E-12
  POISSON| Poisson solver converged in 2 iterations.
     3 Broy./Diag. 0.30E+00   13.3     0.16873916     -5675.2573279121 -3.80E+00
  POISSON|   iter        pres error      nabs error        E_hartree    delta E
  POISSON|      1        0.8977E-04      0.3657E-03    1992.2091470147  0.51E-01
  POISSON|      2        0.8935E-17      0.8977E-04    1992.2091470147  0.23E-12
  POISSON| Poisson solver converged in 2 iterations.
     4 Broy./Diag. 0.30E+00   13.4     0.13497238     -5672.7925844634  2.46E+00
  POISSON|   iter        pres error      nabs error        E_hartree    delta E
  POISSON|      1        0.2904E-04      0.1162E-03    1992.3316510742  0.12E+00
  POISSON|      2        0.8654E-18      0.2904E-04    1992.3316510742  0.14E-11
  POISSON| Poisson solver converged in 2 iterations.
     5 Broy./Diag. 0.30E+00   13.4     0.06308170     -5672.8367300851 -4.41E-02
  POISSON|   iter        pres error      nabs error        E_hartree    delta E
  POISSON|      1        0.3355E-05      0.3708E-04    1992.4317738213  0.10E+00
  POISSON|      2        0.5561E-18      0.3355E-05    1992.4317738213  0.23E-12
  POISSON| Poisson solver converged in 2 iterations.
     6 Broy./Diag. 0.30E+00   13.4     0.03578454     -5672.7931131377  4.36E-02
  POISSON|   iter        pres error      nabs error        E_hartree    delta E
  POISSON|      1        0.3248E-05      0.3485E-04    1992.5502342863  0.12E+00
  POISSON|      2        0.4946E-18      0.3248E-05    1992.5502342863 -0.45E-12
  POISSON| Poisson solver converged in 2 iterations.
     7 Broy./Diag. 0.30E+00   13.4     0.03510365     -5672.4782541277  3.15E-01
  POISSON|   iter        pres error      nabs error        E_hartree    delta E
  POISSON|      1        0.2634E-05      0.3156E-04    1992.6327458913  0.83E-01
  POISSON|      2        0.1194E-17      0.2634E-05    1992.6327458913 -0.45E-12
  POISSON| Poisson solver converged in 2 iterations.
     8 Broy./Diag. 0.30E+00   13.4     0.01820284     -5672.1578615361  3.20E-01
  POISSON|   iter        pres error      nabs error        E_hartree    delta E
  POISSON|      1        0.7063E-06      0.9082E-05    1992.6548462854  0.22E-01
  POISSON|      2        0.1211E-18      0.7063E-06    1992.6548462854  0.00E+00
  POISSON| Poisson solver converged in 2 iterations.
     9 Broy./Diag. 0.30E+00   13.5     0.00823511     -5672.3691132678 -2.11E-01
  POISSON|   iter        pres error      nabs error        E_hartree    delta E
  POISSON|      1        0.1348E-07      0.5419E-05    1992.6653796859  0.11E-01
  POISSON|      2        0.3091E-19      0.1348E-07    1992.6653796859  0.00E+00
  POISSON| Poisson solver converged in 2 iterations.
    10 Broy./Diag. 0.30E+00   13.5     0.00621507     -5672.2941301155  7.50E-02
  POISSON|   iter        pres error      nabs error        E_hartree    delta E
  POISSON|      1        0.1677E-07      0.5519E-05    1992.6711899523  0.58E-02
  POISSON|      2        0.1678E-18      0.1677E-07    1992.6711899523 -0.23E-12
  POISSON| Poisson solver converged in 2 iterations.
    11 Broy./Diag. 0.30E+00   13.6     0.00250532     -5672.2602628003  3.39E-02
  POISSON|   iter        pres error      nabs error        E_hartree    delta E
  POISSON|      1        0.2012E-06      0.3759E-05    1992.6774062110  0.62E-02
  POISSON|      2        0.1890E-21      0.2012E-06    1992.6774062110 -0.23E-12
  POISSON| Poisson solver converged in 2 iterations.
    12 Broy./Diag. 0.30E+00   13.6     0.00196634     -5672.2981647471 -3.79E-02
  POISSON|   iter        pres error      nabs error        E_hartree    delta E
  POISSON|      1        0.2978E-06      0.3027E-05    1992.6812990256  0.39E-02
  POISSON|      2        0.6679E-19      0.2978E-06    1992.6812990256  0.00E+00
  POISSON| Poisson solver converged in 2 iterations.
    13 Broy./Diag. 0.30E+00   13.5     0.00129979     -5672.2822458531  1.59E-02
  POISSON|   iter        pres error      nabs error        E_hartree    delta E
  POISSON|      1        0.9827E-07      0.1387E-05    1992.6816009029  0.30E-03
  POISSON|      2        0.1063E-19      0.9827E-07    1992.6816009029  0.23E-12
  POISSON| Poisson solver converged in 2 iterations.
    14 Broy./Diag. 0.30E+00   13.7     0.00085972     -5672.2835030429 -1.26E-03
  POISSON|   iter        pres error      nabs error        E_hartree    delta E
  POISSON|      1        0.1172E-06      0.1427E-05    1992.6818022244  0.20E-03
  POISSON|      2        0.2661E-19      0.1172E-06    1992.6818022244  0.23E-12
  POISSON| Poisson solver converged in 2 iterations.
    15 Broy./Diag. 0.30E+00   13.5     0.00068064     -5672.2816617307  1.84E-03
  POISSON|   iter        pres error      nabs error        E_hartree    delta E
  POISSON|      1        0.4347E-06      0.1860E-05    1992.6817329095 -0.69E-04
  POISSON|      2        0.4802E-19      0.4347E-06    1992.6817329095  0.00E+00
  POISSON| Poisson solver converged in 2 iterations.
    16 Broy./Diag. 0.30E+00   13.6     0.00102454     -5672.2857104185 -4.05E-03
  POISSON|   iter        pres error      nabs error        E_hartree    delta E
  POISSON|      1        0.1449E-06      0.1571E-05    1992.6817055915 -0.27E-04
  POISSON|      2        0.1824E-19      0.1449E-06    1992.6817055915  0.00E+00
  POISSON| Poisson solver converged in 2 iterations.
    17 Broy./Diag. 0.30E+00   13.5     0.00094454     -5672.2893785552 -3.67E-03
  POISSON|   iter        pres error      nabs error        E_hartree    delta E
  POISSON|      1        0.4521E-07      0.9877E-06    1992.6819123746  0.21E-03
  POISSON|      2        0.1541E-19      0.4521E-07    1992.6819123746  0.23E-12
  POISSON| Poisson solver converged in 2 iterations.
    18 Broy./Diag. 0.30E+00   13.6     0.00038188     -5672.2878240767  1.55E-03
  POISSON|   iter        pres error      nabs error        E_hartree    delta E
  POISSON|      1        0.5271E-07      0.8696E-06    1992.6820095995  0.97E-04
  POISSON|      2        0.3521E-19      0.5271E-07    1992.6820095995  0.00E+00
  POISSON| Poisson solver converged in 2 iterations.
    19 Broy./Diag. 0.30E+00   13.5     0.00019414     -5672.2863984512  1.43E-03
  POISSON|   iter        pres error      nabs error        E_hartree    delta E
  POISSON|      1        0.1230E-07      0.6527E-06    1992.6823255825  0.32E-03
  POISSON|      2        0.1956E-19      0.1230E-07    1992.6823255825 -0.23E-12
  POISSON| Poisson solver converged in 2 iterations.
    20 Broy./Diag. 0.30E+00   13.5     0.00014599     -5672.2894709180 -3.07E-03
  POISSON|   iter        pres error      nabs error        E_hartree    delta E
  POISSON|      1        0.2397E-07      0.6730E-06    1992.6827360721  0.41E-03
  POISSON|      2        0.1856E-19      0.2397E-07    1992.6827360721  0.23E-12
  POISSON| Poisson solver converged in 2 iterations.
    21 Broy./Diag. 0.30E+00   13.5     0.00019672     -5672.2889036746  5.67E-04
  POISSON|   iter        pres error      nabs error        E_hartree    delta E
  POISSON|      1        0.1411E-07      0.7947E-06    1992.6830190293  0.28E-03
  POISSON|      2        0.3171E-19      0.1411E-07    1992.6830190293  0.00E+00
  POISSON| Poisson solver converged in 2 iterations.
    22 Broy./Diag. 0.30E+00   13.6     0.00014892     -5672.2862084783  2.70E-03
  POISSON|   iter        pres error      nabs error        E_hartree    delta E
  POISSON|      1        0.1118E-08      0.6996E-06    1992.6834108690  0.39E-03
  POISSON| Poisson solver converged in 1 iteration. 
    23 Broy./Diag. 0.30E+00   12.2     0.00009908     -5672.2885774978 -2.37E-03
  POISSON|   iter        pres error      nabs error        E_hartree    delta E
  POISSON|      1        0.3305E-07      0.6157E-06    1992.6837057872  0.29E-03
  POISSON|      2        0.2366E-19      0.3305E-07    1992.6837057872  0.00E+00
  POISSON| Poisson solver converged in 2 iterations.
    24 Broy./Diag. 0.30E+00   13.5     0.00009886     -5672.2882130493  3.64E-04
  POISSON|   iter        pres error      nabs error        E_hartree    delta E
  POISSON|      1        0.2429E-08      0.5385E-06    1992.6839097841  0.20E-03
  POISSON| Poisson solver converged in 1 iteration. 
    25 Broy./Diag. 0.30E+00   12.1     0.00010909     -5672.2879485527  2.64E-04
  POISSON|   iter        pres error      nabs error        E_hartree    delta E
  POISSON|      1        0.6901E-07      0.4116E-06    1992.6840172503  0.11E-03
  POISSON|      2        0.6572E-20      0.6901E-07    1992.6840172503  0.00E+00
  POISSON| Poisson solver converged in 2 iterations.
    26 Broy./Diag. 0.30E+00   13.5     0.00016504     -5672.2880888594 -1.40E-04
  POISSON|   iter        pres error      nabs error        E_hartree    delta E
  POISSON|      1        0.6299E-07      0.5287E-06    1992.6841559206  0.14E-03
  POISSON|      2        0.2182E-19      0.6299E-07    1992.6841559206  0.00E+00
  POISSON| Poisson solver converged in 2 iterations.
    27 Broy./Diag. 0.30E+00   13.5     0.00015855     -5672.2877436172  3.45E-04
  POISSON|   iter        pres error      nabs error        E_hartree    delta E
  POISSON|      1        0.7649E-08      0.4349E-06    1992.6842218511  0.66E-04
  POISSON| Poisson solver converged in 1 iteration. 
    28 Broy./Diag. 0.30E+00   12.1     0.00006413     -5672.2881978155 -4.54E-04
  POISSON|   iter        pres error      nabs error        E_hartree    delta E
  POISSON|      1        0.1269E-07      0.3423E-06    1992.6842762045  0.54E-04
  POISSON|      2        0.1262E-19      0.1269E-07    1992.6842762045  0.23E-12
  POISSON| Poisson solver converged in 2 iterations.
    29 Broy./Diag. 0.30E+00   13.6     0.00005759     -5672.2887039999 -5.06E-04
  POISSON|   iter        pres error      nabs error        E_hartree    delta E
  POISSON|      1        0.4108E-08      0.4168E-06    1992.6842810849  0.49E-05
  POISSON| Poisson solver converged in 1 iteration. 
    30 Broy./Diag. 0.30E+00   12.1     0.00004099     -5672.2883325602  3.71E-04
  POISSON|   iter        pres error      nabs error        E_hartree    delta E
  POISSON|      1        0.3695E-09      0.4651E-06    1992.6842795078 -0.16E-05
  POISSON| Poisson solver converged in 1 iteration. 
    31 Broy./Diag. 0.30E+00   12.1     0.00004804     -5672.2887948332 -4.62E-04
  POISSON|   iter        pres error      nabs error        E_hartree    delta E
  POISSON|      1        0.5327E-09      0.2500E-06    1992.6842993447  0.20E-04
  POISSON| Poisson solver converged in 1 iteration. 
    32 Broy./Diag. 0.30E+00   12.1     0.00004220     -5672.2893776542 -5.83E-04
  POISSON|   iter        pres error      nabs error        E_hartree    delta E
  POISSON|      1        0.7165E-09      0.3085E-06    1992.6842813042 -0.18E-04
  POISSON| Poisson solver converged in 1 iteration. 
    33 Broy./Diag. 0.30E+00   12.5     0.00002709     -5672.2888520904  5.26E-04
  POISSON|   iter        pres error      nabs error        E_hartree    delta E
  POISSON|      1        0.5596E-08      0.2142E-06    1992.6842949281  0.14E-04
  POISSON| Poisson solver converged in 1 iteration. 
    34 Broy./Diag. 0.30E+00   12.2     0.00002764     -5672.2893660871 -5.14E-04
  POISSON|   iter        pres error      nabs error        E_hartree    delta E
  POISSON|      1        0.1914E-08      0.1658E-06    1992.6843170010  0.22E-04
  POISSON| Poisson solver converged in 1 iteration. 
    35 Broy./Diag. 0.30E+00   12.1     0.00002999     -5672.2893597515  6.34E-06
  POISSON|   iter        pres error      nabs error        E_hartree    delta E
  POISSON|      1        0.1111E-07      0.1695E-06    1992.6843425226  0.26E-04
  POISSON|      2        0.7769E-20      0.1111E-07    1992.6843425226 -0.23E-12
  POISSON| Poisson solver converged in 2 iterations.
    36 Broy./Diag. 0.30E+00   13.5     0.00003131     -5672.2893676480 -7.90E-06
  POISSON|   iter        pres error      nabs error        E_hartree    delta E
  POISSON|      1        0.1528E-07      0.8861E-07    1992.6843581700  0.16E-04
  POISSON|      2        0.1388E-20      0.1528E-07    1992.6843581700  0.00E+00
  POISSON| Poisson solver converged in 2 iterations.
    37 Broy./Diag. 0.30E+00   13.5     0.00003579     -5672.2894157841 -4.81E-05
  POISSON|   iter        pres error      nabs error        E_hartree    delta E
  POISSON|      1        0.2228E-09      0.1434E-06    1992.6844058210  0.48E-04
  POISSON| Poisson solver converged in 1 iteration. 
    38 Broy./Diag. 0.30E+00   12.1     0.00001889     -5672.2893954907  2.03E-05
  POISSON|   iter        pres error      nabs error        E_hartree    delta E
  POISSON|      1        0.3470E-08      0.9643E-07    1992.6844306442  0.25E-04
  POISSON| Poisson solver converged in 1 iteration. 
    39 Broy./Diag. 0.30E+00   12.1     0.00002081     -5672.2892372868  1.58E-04
  POISSON|   iter        pres error      nabs error        E_hartree    delta E
  POISSON|      1        0.3730E-08      0.1044E-06    1992.6844724966  0.42E-04
  POISSON| Poisson solver converged in 1 iteration. 
    40 Broy./Diag. 0.30E+00   12.2     0.00001370     -5672.2893849902 -1.48E-04
  POISSON|   iter        pres error      nabs error        E_hartree    delta E
  POISSON|      1        0.2533E-10      0.1004E-06    1992.6845059810  0.33E-04
  POISSON| Poisson solver converged in 1 iteration. 
    41 Broy./Diag. 0.30E+00   12.1     0.00000965     -5672.2892684185  1.17E-04
  POISSON|   iter        pres error      nabs error        E_hartree    delta E
  POISSON|      1        0.1358E-08      0.8152E-07    1992.6845193082  0.13E-04
  POISSON| Poisson solver converged in 1 iteration. 
    42 Broy./Diag. 0.30E+00   12.2     0.00000970     -5672.2892014430  6.70E-05
  POISSON|   iter        pres error      nabs error        E_hartree    delta E
  POISSON|      1        0.1042E-08      0.8063E-07    1992.6845434411  0.24E-04
  POISSON| Poisson solver converged in 1 iteration. 
    43 Broy./Diag. 0.30E+00   12.1     0.00000850     -5672.2893436515 -1.42E-04
  POISSON|   iter        pres error      nabs error        E_hartree    delta E
  POISSON|      1        0.5604E-09      0.8884E-07    1992.6845469189  0.35E-05
  POISSON| Poisson solver converged in 1 iteration. 
    44 Broy./Diag. 0.30E+00   12.1     0.00000664     -5672.2891874729  1.56E-04
  POISSON|   iter        pres error      nabs error        E_hartree    delta E
  POISSON|      1        0.1851E-08      0.6463E-07    1992.6845475854  0.67E-06
  POISSON| Poisson solver converged in 1 iteration. 
    45 Broy./Diag. 0.30E+00   12.1     0.00001033     -5672.2892907572 -1.03E-04
  POISSON|   iter        pres error      nabs error        E_hartree    delta E
  POISSON|      1        0.3736E-08      0.9491E-07    1992.6845473035 -0.28E-06
  POISSON| Poisson solver converged in 1 iteration. 
    46 Broy./Diag. 0.30E+00   12.1     0.00000789     -5672.2892767196  1.40E-05
  POISSON|   iter        pres error      nabs error        E_hartree    delta E
  POISSON|      1        0.5489E-08      0.3121E-07    1992.6845446802 -0.26E-05
  POISSON| Poisson solver converged in 1 iteration. 
    47 Broy./Diag. 0.30E+00   12.1     0.00001311     -5672.2892866422 -9.92E-06
  POISSON|   iter        pres error      nabs error        E_hartree    delta E
  POISSON|      1        0.3396E-08      0.9020E-07    1992.6845376136 -0.71E-05
  POISSON| Poisson solver converged in 1 iteration. 
    48 Broy./Diag. 0.30E+00   12.1     0.00001030     -5672.2892841413  2.50E-06
  POISSON|   iter        pres error      nabs error        E_hartree    delta E
  POISSON|      1        0.1232E-08      0.4869E-07    1992.6845349134 -0.27E-05
  POISSON| Poisson solver converged in 1 iteration. 
    49 Broy./Diag. 0.30E+00   12.1     0.00000548     -5672.2893680926 -8.40E-05
  POISSON|   iter        pres error      nabs error        E_hartree    delta E
  POISSON|      1        0.9172E-09      0.5094E-07    1992.6845292137 -0.57E-05
  POISSON| Poisson solver converged in 1 iteration. 
    50 Broy./Diag. 0.30E+00   12.1     0.00000636     -5672.2893075860  6.05E-05
  POISSON|   iter        pres error      nabs error        E_hartree    delta E
  POISSON|      1        0.1655E-08      0.5615E-07    1992.6845287328 -0.48E-06
  POISSON| Poisson solver converged in 1 iteration. 
    51 Broy./Diag. 0.30E+00   12.1     0.00000441     -5672.2893591982 -5.16E-05
  POISSON|   iter        pres error      nabs error        E_hartree    delta E
  POISSON|      1        0.3338E-10      0.3285E-07    1992.6845313824  0.26E-05
  POISSON| Poisson solver converged in 1 iteration. 
    52 Broy./Diag. 0.30E+00   12.1     0.00000475     -5672.2893700788 -1.09E-05
  POISSON|   iter        pres error      nabs error        E_hartree    delta E
  POISSON|      1        0.7760E-09      0.4105E-07    1992.6845342225  0.28E-05
  POISSON| Poisson solver converged in 1 iteration. 
    53 Broy./Diag. 0.30E+00   12.1     0.00000313     -5672.2893234933  4.66E-05
  POISSON|   iter        pres error      nabs error        E_hartree    delta E
  POISSON|      1        0.5239E-09      0.3370E-07    1992.6845443088  0.10E-04
  POISSON| Poisson solver converged in 1 iteration. 
    54 Broy./Diag. 0.30E+00   12.2     0.00000248     -5672.2893679911 -4.45E-05
  POISSON|   iter        pres error      nabs error        E_hartree    delta E
  POISSON|      1        0.1622E-09      0.2931E-07    1992.6845514439  0.71E-05
  POISSON| Poisson solver converged in 1 iteration. 
    55 Broy./Diag. 0.30E+00   12.1     0.00000360     -5672.2893154388  5.26E-05
  POISSON|   iter        pres error      nabs error        E_hartree    delta E
  POISSON|      1        0.2949E-10      0.2667E-07    1992.6845583053  0.69E-05
  POISSON| Poisson solver converged in 1 iteration. 
    56 Broy./Diag. 0.30E+00   12.1     0.00000209     -5672.2893362798 -2.08E-05
  POISSON|   iter        pres error      nabs error        E_hartree    delta E
  POISSON|      1        0.1523E-08      0.6477E-08    1992.6845607594  0.25E-05
  POISSON| Poisson solver converged in 1 iteration. 
    57 Broy./Diag. 0.30E+00   12.1     0.00000352     -5672.2893377846 -1.50E-06
  POISSON|   iter        pres error      nabs error        E_hartree    delta E
  POISSON|      1        0.5711E-09      0.2145E-07    1992.6845660085  0.52E-05
  POISSON| Poisson solver converged in 1 iteration. 
    58 Broy./Diag. 0.30E+00   12.1     0.00000276     -5672.2893289043  8.88E-06
  POISSON|   iter        pres error      nabs error        E_hartree    delta E
  POISSON|      1        0.3837E-09      0.1531E-07    1992.6845689485  0.29E-05
  POISSON| Poisson solver converged in 1 iteration. 
    59 Broy./Diag. 0.30E+00   12.2     0.00000181     -5672.2893224643  6.44E-06
  POISSON|   iter        pres error      nabs error        E_hartree    delta E
  POISSON|      1        0.7236E-09      0.1061E-07    1992.6845715916  0.26E-05
  POISSON| Poisson solver converged in 1 iteration. 
    60 Broy./Diag. 0.30E+00   12.1     0.00000200     -5672.2893423392 -1.99E-05
  POISSON|   iter        pres error      nabs error        E_hartree    delta E
  POISSON|      1        0.1614E-09      0.1117E-07    1992.6845726924  0.11E-05
  POISSON| Poisson solver converged in 1 iteration. 
    61 Broy./Diag. 0.30E+00   12.1     0.00000144     -5672.2893313264  1.10E-05
  POISSON|   iter        pres error      nabs error        E_hartree    delta E
  POISSON|      1        0.4097E-09      0.1196E-07    1992.6845731210  0.43E-06
  POISSON| Poisson solver converged in 1 iteration. 
    62 Broy./Diag. 0.30E+00   12.1     0.00000119     -5672.2893384100 -7.08E-06
  POISSON|   iter        pres error      nabs error        E_hartree    delta E
  POISSON|      1        0.2960E-10      0.4595E-08    1992.6845729855 -0.14E-06
  POISSON| Poisson solver converged in 1 iteration. 
    63 Broy./Diag. 0.30E+00   12.1     0.00000097     -5672.2893495776 -1.12E-05

  *** SCF run converged in    63 steps ***


  Electronic density on regular grids:      -2159.9999999992        0.0000000008
  Core density on regular grids:             2159.9999999995       -0.0000000005
  Total charge density on r-space grids:        0.0000000003
  Total charge density g-space grids:           0.0000000003

  Overlap energy of the core charge distribution:               0.00003262970181
  Self energy of the core charge distribution:              -9891.63555570741482
  Core Hamiltonian energy:                                   3202.85005197756072
  Hartree energy:                                            1992.68457298549492
  Electric enthalpy:                                         1992.68457298549492
  Exchange-correlation energy:                               -971.43841342718861
  Dispersion energy:                                           -4.71629778424006
  Electronic entropic energy:                                  -0.03374030625007
  Fermi energy:                                                -0.20811466442802

  Total energy:                                             -5672.28934957759066

 The electron density is written in cube file format to the file:

 cp2k-ELECTRON_DENSITY-1_0.cube

 !-----------------------------------------------------------------------------!
                     Mulliken Population Analysis

 #  Atom  Element  Kind  Atomic population                           Net charge
       1     Pt       1         10.055410                             -0.055410
       2     Pt       1         10.048043                             -0.048043
       3     Pt       1         10.055545                             -0.055545
       4     Pt       1         10.047081                             -0.047081
       5     Pt       1         10.052436                             -0.052436
       6     Pt       1         10.057276                             -0.057276
       7     Pt       1         10.067471                             -0.067471
       8     Pt       1         10.065109                             -0.065109
       9     Pt       1         10.062566                             -0.062566
      10     Pt       1         10.051901                             -0.051901
      11     Pt       1         10.068380                             -0.068380
      12     Pt       1         10.056993                             -0.056993
      13     Pt       1         10.062811                             -0.062811
      14     Pt       1         10.050341                             -0.050341
      15     Pt       1         10.051937                             -0.051937
      16     Pt       1         10.053766                             -0.053766
      17     Pt       1         10.034009                             -0.034009
      18     Pt       1         10.022294                             -0.022294
      19     Pt       1         10.047176                             -0.047176
[...]
    191      1      Pt         -0.01210722     0.00337825    -0.01335055
    192      1      Pt          0.00756409    -0.00233387     0.00526727
    193      1      Pt         -0.00029303     0.00962613     0.00122988
    194      1      Pt          0.00846360    -0.00865940     0.00747979
    195      1      Pt         -0.00941332    -0.01158301    -0.00909869
    196      1      Pt          0.01176224     0.01057773     0.02001194
    197      1      Pt         -0.00507863    -0.00004587    -0.00074804
    198      1      Pt         -0.01313097    -0.00998713     0.00508531
    199      1      Pt          0.00888642    -0.00395911    -0.00626836
    200      1      Pt          0.00510795    -0.00354822    -0.00637624
    201      1      Pt          0.00746104     0.00276854    -0.01168539
    202      1      Pt         -0.00712718    -0.01171697     0.00927526
    203      1      Pt          0.00685193    -0.00994831     0.00104482
    204      1      Pt          0.00069470     0.00812857     0.01498232
    205      1      Pt          0.00339235    -0.00064390     0.00418625
    206      1      Pt          0.00455524     0.00076362     0.00301598
    207      1      Pt          0.00493349     0.00920265     0.00185036
    208      1      Pt         -0.00101685     0.01231968     0.02749994
    209      1      Pt          0.00621595    -0.00093398    -0.00103603
    210      1      Pt         -0.01546962     0.00580596    -0.00061748
    211      1      Pt          0.00640628     0.00581388    -0.00541286
    212      1      Pt          0.00432008    -0.00423133     0.01065080
    213      1      Pt          0.01216212    -0.00600360    -0.00621991
    214      1      Pt         -0.00197435     0.01435407    -0.00928962
    215      1      Pt         -0.00290938     0.00036920     0.00054508
    216      1      Pt         -0.00931649     0.00521717     0.00424298
 SUM OF ATOMIC FORCES           0.00001442    -0.00001397     0.00010137     0.00010334

 -------------------------------------------------------------------------------
 -                                                                             -
 -                                DBCSR STATISTICS                             -
 -                                                                             -
 -------------------------------------------------------------------------------
 COUNTER                                    TOTAL       BLAS       SMM       ACC
 flops    20 x    12 x    20            447897600       0.0%    100.0%      0.0%
 flops    20 x    32 x    20          58525286400       0.0%    100.0%      0.0%
 flops    20 x    20 x   204         248609088000       0.0%    100.0%      0.0%
 flops    20 x    20 x   224         272982528000       0.0%    100.0%      0.0%
 flops    20 x    20 x   192        1403910144000       0.0%    100.0%      0.0%
 flops inhomo. stacks                           0       0.0%      0.0%      0.0%
 flops total                         1.984475E+12       0.0%    100.0%      0.0%
 flops max/rank                     63.687885E+09       0.0%    100.0%      0.0%
 matmuls inhomo. stacks                         0       0.0%      0.0%      0.0%
 matmuls total                           14519520       0.0%    100.0%      0.0%
 number of processed stacks                 19072       0.0%    100.0%      0.0%
 average stack size                                     0.0     761.3       0.0
 marketing flops                     2.825001E+12
 -------------------------------------------------------------------------------
 # multiplications                             66
 max memory usage/rank               1.834242E+09
 # max total images/rank                        2
 # max 3D layers                                1
 # MPI messages exchanged                   27456
 MPI messages size (bytes):
  total size                        36.702028E+09
  min size                         829.440000E+03
  max size                           4.665600E+06
  average size                       1.336758E+06
 MPI breakdown and total messages size (bytes):
             size <=      128                   0                        0
       128 < size <=     8192                   0                        0
      8192 < size <=    32768                   0                        0
     32768 < size <=   131072                   0                        0
    131072 < size <=  4194304               27232              35656934400
   4194304 < size <= 16777216                 224               1045094400
  16777216 < size                               0                        0
 -------------------------------------------------------------------------------

 *** WARNING in dbcsr_mm.F:290 :: Using a non-square number of MPI ranks ***
 *** might lead to poor performance. Used ranks: 32 Suggested: 36 64     ***

 -------------------------------------------------------------------------------
 -                                                                             -
 -                      DBCSR MESSAGE PASSING PERFORMANCE                      -
 -                                                                             -
 -------------------------------------------------------------------------------
 ROUTINE             CALLS      AVE VOLUME [Bytes]
 MP_Bcast                6                     12.
 MP_Allreduce          485                      9.
 MP_Alltoall          1829                1275340.
 MP_ISend             2112                 578495.
 MP_IRecv             2112                 561506.
 -------------------------------------------------------------------------------

 -------------------------------------------------------------------------------
 -                                                                             -
 -                                DBM STATISTICS                               -
 -                                                                             -
 -------------------------------------------------------------------------------
    M  x    N  x    K                                          COUNT     PERCENT
 -------------------------------------------------------------------------------

 -------------------------------------------------------------------------------
 -                                                                             -
 -                                GRID STATISTICS                              -
 -                                                                             -
 -------------------------------------------------------------------------------
 LP    KERNEL             BACKEND                              COUNT     PERCENT
 4     collocate general  REF                               21861184      49.97%
 4     integrate general  REF                               21519603      49.19%
 5     integrate general  REF                                 341581       0.78%
 0     collocate general  REF                                  13824       0.03%
 0     integrate general  REF                                   6912       0.02%
 1     integrate general  REF                                   6912       0.02%
 -------------------------------------------------------------------------------

 MEMORY| Estimated peak process memory [MiB]                                2180

 -------------------------------------------------------------------------------
 ----                             MULTIGRID INFO                            ----
 -------------------------------------------------------------------------------
 count for grid        1:          17608          cutoff [a.u.]          200.00
 count for grid        2:         178030          cutoff [a.u.]           66.67
 count for grid        3:         110054          cutoff [a.u.]           22.22
 count for grid        4:         155569          cutoff [a.u.]            7.41
 total gridlevel count  :         461261

 -------------------------------------------------------------------------------
 -                                                                             -
 -                         MESSAGE PASSING PERFORMANCE                         -
 -                                                                             -
 -------------------------------------------------------------------------------

 ROUTINE             CALLS      AVE VOLUME [Bytes]
 MP_Group                4
 MP_Bcast             1770                 164528.
 MP_Allreduce         1610                   1571.
 MP_Sync                69
 MP_Alltoall          3115               49331330.
 MP_SendRecv           124                  14994.
 MP_ISendRecv         7936                 214800.
 MP_Wait             19240
 MP_comm_split           1
 MP_ISend            10136                 715003.
 MP_IRecv            10136                 715003.
 MP_Recv               192                1105920.
 MP_Write_All            3                4213860.
 -------------------------------------------------------------------------------


 -------------------------------------------------------------------------------
 -                                                                             -
 -                           R E F E R E N C E S                               -
 -                                                                             -
 -------------------------------------------------------------------------------
 
 CP2K version 2022.1, the CP2K developers group (2022).
 CP2K is freely available from https://www.cp2k.org/ .

 Kuehne,Thomas D.; Iannuzzi,Marcella; Del Ben,Mauro;
 Rybkin,Vladimir V.; Seewald,Patrick; Stein,Frederick; Laino,Teodoro;
 Khaliullin,Rustam Z.; Schuett,Ole; Schiffmann,Florian; Golze,Dorothea;
 Wilhelm,Jan; Chulkov,Sergey; Bani-Hashemian,Mohammad Hossein;
 Weber,Valery; Borstnik,Urban; Taillefumier,Mathieu;
 Jakobovits,Alice Shoshana; Lazzaro,Alfio; Pabst,Hans; Mueller,Tiziano;
 Schade,Robert; Guidon,Manuel; Andermatt,Samuel; Holmberg,Nico;
 Schenter,Gregory K.; Hehn,Anna; Bussy,Augustin; Belleflamme,Fabian;
 Tabacchi,Gloria; Gloess,Andreas; Lass,Michael; Bethune,Iain;
 Mundy,Christopher J.; Plessl,Christian; Watkins,Matt;
 VandeVondele,Joost; Krack,Matthias; Hutter,Juerg. 
 The Journal of Chemical Physics, 152 (19), (2020). 
 CP2K: An electronic structure and molecular dynamics software package -
 Quickstep: Efficient and accurate electronic structure calculations.
 https://doi.org/10.1063/5.0007045

 Goerigk, Lars; Hansen, Andreas; Bauer, Christoph; Ehrlich, Stephan;
 Najibi, Asim; Grimme, Stefan. , 19 (48), (2017). 
 A look at the density functional theory zoo with the advanced GMTKN55 database
 for general main group thermochemistry, kinetics and noncovalent interactions.
 https://doi.org/10.1039/C7CP04913G

 Bani-Hashemian, MH; Bruck, S; Luisier, M; VandeVondele, J. 
 JOURNAL OF CHEMICAL PHYSICS, 144 (4), 044113 (2016). 
 A generalized Poisson solver for first-principles device simulations.
 https://doi.org/10.1063/1.4940796

 Schuett, Ole; Messmer, Peter; Hutter, Juerg; VandeVondele, Joost. 
 Electronic Structure Calculations on Graphics Processing Units, John
 Wiley & Sons, Ltd, 173-190 (2016). 
 GPU-Accelerated Sparse Matrix-Matrix Multiplication for
 Linear Scaling Density Functional Theory.
 https://doi.org/10.1002/9781118670712.ch8

 Heinecke, A; Henry, G; Hutchinson, M; Pabst, H. 
 Proceedings of Intl. Supercomputing Conference, 981-991 (2016). 
 LIBXSMM: Accelerating Small Matrix Multiplications
 by Runtime Code Generation.
 https://doi.org/10.1109/SC.2016.83

 Borstnik, U; VandeVondele, J; Weber, V; Hutter, J. 
 PARALLEL COMPUTING, 40 (5-6), 47-58 (2014). 
 Sparse matrix multiplication: The distributed block-compressed sparse
 row library.
 https://doi.org/10.1016/j.parco.2014.03.012

 Hutter, J; Iannuzzi, M; Schiffmann, F; VandeVondele, J. 
 WIREs Comput Mol Sci., 4 (1), 15-25 (2014). 
 CP2K: atomistic simulations of condensed matter systems.
 https://doi.org/10.1002/wcms.1159

 Marek, A; Blum, V; Johanni, R; Havu, V; Lang, B; Auckenthaler, T;
 Heinecke, A; Bungartz, H; Lederer, H. 
 Journal of Physics: Condensed Matter, 26 (21), (2014). 
 The ELPA library: scalable parallel eigenvalue solutions for
 electronic structure
 theory and computational science.
 https://doi.org/10.1088/0953-8984/26/21/213201

 Grimme, S; Ehrlich, S; Goerigk, L. 
 JOURNAL OF COMPUTATIONAL CHEMISTRY, 32, 1456 (2011). 
 Effect of the damping function in dispersion corrected density functional theory.
 https://doi.org/10.1002/jcc.21759

 Grimme, S; Antony, J; Ehrlich, S; Krieg, H. 
 JOURNAL OF CHEMICAL PHYSICS, 132 (15), 154104 (2010). 
 A consistent and accurate ab initio parametrization of density
 functional dispersion correction (DFT-D) for the 94 elements H-Pu.
 https://doi.org/10.1063/1.3382344

 VandeVondele, J; Hutter, J. 
 JOURNAL OF CHEMICAL PHYSICS, 127 (11), 114105 (2007). 
 Gaussian basis sets for accurate calculations on molecular systems in
 gas and condensed phases.
 https://doi.org/10.1063/1.2770708

 Krack, M. 
 THEORETICAL CHEMISTRY ACCOUNTS, 114 (1-3), 145-152 (2005). 
 Pseudopotentials for H to Kr optimized for gradient-corrected
 exchange-correlation functionals.
 https://doi.org/10.1007/s00214-005-0655-y

 VandeVondele, J; Krack, M; Mohamed, F; Parrinello, M; Chassaing, T;
 Hutter, J. COMPUTER PHYSICS COMMUNICATIONS, 167 (2), 103-128 (2005). 
 QUICKSTEP: Fast and accurate density functional calculations using a
 mixed Gaussian and plane waves approach.
 https://doi.org/10.1016/j.cpc.2004.12.014

 Frigo, M; Johnson, SG. 
 PROCEEDINGS OF THE IEEE, 93 (2), 216-231 (2005). 
 The design and implementation of FFTW3.
 https://doi.org/10.1109/JPROC.2004.840301

 Hartwigsen, C; Goedecker, S; Hutter, J. 
 PHYSICAL REVIEW B, 58 (7), 3641-3662 (1998). 
 Relativistic separable dual-space Gaussian pseudopotentials from H to Rn.
 https://doi.org/10.1103/PhysRevB.58.3641

 Lippert, G; Hutter, J; Parrinello, M. 
 MOLECULAR PHYSICS, 92 (3), 477-487 (1997). 
 A hybrid Gaussian and plane wave density functional scheme.
 https://doi.org/10.1080/002689797170220

 Perdew, JP; Burke, K; Ernzerhof, M. 
 PHYSICAL REVIEW LETTERS, 77 (18), 3865-3868 (1996). 
 Generalized gradient approximation made simple.
 https://doi.org/10.1103/PhysRevLett.77.3865

 Goedecker, S; Teter, M; Hutter, J. 
 PHYSICAL REVIEW B, 54 (3), 1703-1710 (1996). 
 Separable dual-space Gaussian pseudopotentials.
 https://doi.org/10.1103/PhysRevB.54.1703


 -------------------------------------------------------------------------------
 -                                                                             -
 -                                T I M I N G                                  -
 -                                                                             -
 -------------------------------------------------------------------------------
 SUBROUTINE                       CALLS  ASD         SELF TIME        TOTAL TIME
                                MAXIMUM       AVERAGE  MAXIMUM  AVERAGE  MAXIMUM
 CP2K                                 1  1.0    0.019    0.037  826.526  826.528
 qs_forces                            1  2.0    0.001    0.001  826.092  826.094
 qs_energies                          1  3.0    0.000    0.000  813.284  813.288
 scf_env_do_scf                       1  4.0    0.000    0.000  803.385  803.482
 scf_env_do_scf_inner_loop           63  5.0    0.003    0.005  803.383  803.479
 rebuild_ks_matrix                   64  7.0    0.000    0.000  511.482  511.506
 qs_ks_build_kohn_sham_matrix        64  8.0    0.010    0.011  511.482  511.506
 qs_ks_update_qs_env                 63  6.0    0.001    0.001  503.141  503.165
 pw_transfer                       2972 12.1    0.227    0.278  286.764  289.705
 fft_wrap_pw1pw2                   2972 13.1    0.032    0.038  286.536  289.441
 fft_wrap_pw1pw2_200               2588 14.4   24.313   27.662  283.724  286.481
 pw_poisson_solve                    64  9.0    0.018    0.026  244.658  244.723
 implicit_poisson_solver_mixed_      64 10.0    6.565    7.088  229.989  230.117
 fft3d_ps                          2972 15.1  121.829  130.828  213.587  217.489
 qs_rho_update_rho_low               64  6.0    0.001    0.001  193.953  193.972
 calculate_rho_elec                  64  7.0    0.351    0.392  193.953  193.971
 sum_up_and_integrate                64  9.0    0.998    1.102  182.430  182.457
 integrate_v_rspace                  64 10.0    0.002    0.002  181.433  181.551
 grid_collocate_task_list            64  8.0   86.078  167.823   86.078  167.823
 derive_fft                         312 12.2    0.023    0.028  161.802  163.011
 grid_integrate_task_list            64 11.0   79.563  155.949   79.563  155.949
 rs_pw_transfer                     516 10.5    0.006    0.007  107.094  134.216
 density_rs2pw                       64  8.0    0.004    0.005  106.116  133.277
 apply_P_operator                   248 11.2    2.321    2.645  131.113  132.001
 mp_waitany                       10136 12.4   89.328  116.387   89.328  116.387
 rs_pw_transfer_RS2PW_200            66 10.0    3.654    4.229   87.706  114.822
 mp_alltoall_d11v                   912 10.3   78.344  103.410   78.344  103.410
 rs_gather_matrices                  64 11.0    0.253    0.295   77.200  102.202
 qs_scf_new_mos                      63  6.0    0.001    0.001   78.750   78.859
 qs_vxc_create                       64  9.0    0.002    0.003   75.923   76.807
 xc_vxc_pw_create                    64 10.0    1.709    2.145   75.921   76.805
 eigensolver                         63  7.0    0.005    0.008   71.132   71.205
 x_to_yz                           1861 16.3   40.894   47.162   63.135   67.657
 mp_alltoall_z22v                  2972 17.1   39.255   58.497   39.255   58.497
 xc_pw_derive                       384 12.0    0.007    0.008   51.321   54.338
 apply_poisson_operator_fft          64 11.0    0.001    0.001   48.570   48.820
 cp_fm_diag_elpa                     64  8.0    0.001    0.001   45.069   45.198
 cp_fm_diag_elpa_base                64  9.0   44.121   44.252   44.960   45.023
 xc_rho_set_and_dset_create          64 11.0    0.728    0.875   39.689   40.523
 yz_to_x                           1111 15.8   11.539   12.125   28.553   39.868
 apply_inv_laplace_operator_fft     158 11.6    1.317    1.413   34.997   36.081
 xc_pw_divergence                    64 11.0    0.004    0.005   33.528   35.351
 pw_scatter_p                      1861 15.3   31.635   35.065   31.635   35.065
 ps_implicit_compute_veps            64 11.0    0.771    0.909   33.786   34.482
 gspace_mixing                       62  6.0    0.339    0.365   30.008   30.008
 pw_derive                         1320 13.1   25.223   26.095   25.223   26.095
 cp_fm_triangular_multiply          189  8.0   25.293   25.553   25.293   25.553
 potential_pw2rs                     64 11.0    0.051    0.057   24.657   24.764
 ps_implicit_compute_error_fft       92 11.0    1.703    1.826   22.761   24.370
 broyden_mixing                      62  7.0   22.006   22.216   22.461   22.546
 pw_gather_p                       1111 14.8   16.681   17.236   16.681   17.236
 -------------------------------------------------------------------------------

 The number of warnings for this run is : 1
 
 -------------------------------------------------------------------------------
  **** **** ******  **  PROGRAM ENDED AT                 2023-12-03 01:51:47.826
 ***** ** ***  *** **   PROGRAM RAN ON                                     cu042
 **    ****   ******    PROGRAM RAN BY                                     jxzhu
 ***** **    ** ** **   PROGRAM PROCESS ID                                 61993
  **** **  *******  **  PROGRAM STOPPED IN /public/home/jxzhu/tmp_calc/04c0855f9
                                           8753fac23fde4df51ba20f3741a9e9a/calc/
                                           task.001.000002
