 DBCSR| CPU Multiplication driver                                           XSMM
 DBCSR| Multrec recursion limit                                              512
 DBCSR| Multiplication stack size                                           1000
 DBCSR| Maximum elements for images                                    UNLIMITED
 DBCSR| Multiplicative factor virtual images                                   1
 DBCSR| Use multiplication densification                                       T
 DBCSR| Multiplication size stacks                                             3
 DBCSR| Use memory pool for CPU allocation                                     F
 DBCSR| Number of 3D layers                                               SINGLE
 DBCSR| Use MPI memory allocation                                              F
 DBCSR| Use RMA algorithm                                                      F
 DBCSR| Use Communication thread                                               T
 DBCSR| Communication thread load                                             87
 DBCSR| MPI: My node id                                                        0
 DBCSR| MPI: Number of nodes                                                  32
 DBCSR| OMP: Current number of threads                                         1
 DBCSR| OMP: Max number of threads                                             1
 DBCSR| Split modifier for TAS multiplication algorithm                  1.0E+00


  **** **** ******  **  PROGRAM STARTED AT               2023-12-03 07:15:04.717
 ***** ** ***  *** **   PROGRAM STARTED ON                                 cu042
 **    ****   ******    PROGRAM STARTED BY                                 jxzhu
 ***** **    ** ** **   PROGRAM PROCESS ID                                 58952
  **** **  *******  **  PROGRAM STARTED IN /public/home/jxzhu/tmp_calc/04c0855f9
                                           8753fac23fde4df51ba20f3741a9e9a/calc/
                                           task.002.000024

 CP2K| version string:                                       CP2K version 2022.1
 CP2K| source code revision number:                                  git:2caeb6f
 CP2K| cp2kflags: omp libint fftw3 libxc elpa parallel mpi3 scalapack cosma xsmm
 CP2K|             plumed2 spglib mkl sirius libvori libbqb
 CP2K| is freely available from                            https://www.cp2k.org/
 CP2K| Program compiled at                           Mon Jul 3 17:37:06 CST 2023
 CP2K| Program compiled on                                                 mu003
 CP2K| Program compiled for                                                local
 CP2K| Data directory path                             /public/home/jxzhu/basis/
 CP2K| Input file name                                                 input.inp
 
 GLOBAL| Force Environment number                                              1
 GLOBAL| Basis set file name                                        BASIS_MOLOPT
 GLOBAL| Potential file name                                      GTH_POTENTIALS
 GLOBAL| MM Potential file name                                     MM_POTENTIAL
 GLOBAL| Coordinate file name                                          coord.xyz
 GLOBAL| Method name                                                        CP2K
 GLOBAL| Project name                                                       cp2k
 GLOBAL| Run type                                                   ENERGY_FORCE
 GLOBAL| FFT library                                                       FFTW3
 GLOBAL| Diagonalization library                                            ELPA
 GLOBAL| Minimum number of eigenvectors for ELPA usage                        16
 GLOBAL| Orthonormality check for eigenvectors                          DISABLED
 GLOBAL| Matrix multiplication library                                     COSMA
 GLOBAL| All-to-all communication in single precision                          F
 GLOBAL| FFTs using library dependent lengths                                  T
 GLOBAL| Grid backend                                                       AUTO
 GLOBAL| Global print level                                               MEDIUM
 GLOBAL| MPI I/O enabled                                                       T
 GLOBAL| Total number of message passing processes                            32
 GLOBAL| Number of threads for this process                                    1
 GLOBAL| This output is from process                                           0
 GLOBAL| Stack size for threads created by OpenMP (OMP_STACKSIZE)        default
 GLOBAL| CPU model name                 Intel(R) Xeon(R) Gold 6338 CPU @ 2.00GHz
 GLOBAL| CPUID                                                              1003

 MEMORY| system memory details [Kb]
 MEMORY|                        rank 0           min           max       average
 MEMORY| MemTotal            263619172     263619172     263619172     263619172
 MEMORY| MemFree             174001444     174001444     174001444     174001444
 MEMORY| Buffers                  3320          3320          3320          3320
 MEMORY| Cached                9384284       9384284       9384284       9384284
 MEMORY| Slab                  2000816       2000816       2000816       2000816
 MEMORY| SReclaimable           248096        248096        248096        248096
 MEMORY| MemLikelyFree       183637144     183637144     183637144     183637144


 *** Fundamental physical constants (SI units) ***

 *** Literature: B. J. Mohr and B. N. Taylor,
 ***             CODATA recommended values of the fundamental physical
 ***             constants: 2006, Web Version 5.1
 ***             http://physics.nist.gov/constants

 Speed of light in vacuum [m/s]                             2.99792458000000E+08
 Magnetic constant or permeability of vacuum [N/A**2]       1.25663706143592E-06
 Electric constant or permittivity of vacuum [F/m]          8.85418781762039E-12
 Planck constant (h) [J*s]                                  6.62606896000000E-34
 Planck constant (h-bar) [J*s]                              1.05457162825177E-34
 Elementary charge [C]                                      1.60217648700000E-19
 Electron mass [kg]                                         9.10938215000000E-31
 Electron g factor [ ]                                     -2.00231930436220E+00
 Proton mass [kg]                                           1.67262163700000E-27
 Fine-structure constant                                    7.29735253760000E-03
 Rydberg constant [1/m]                                     1.09737315685270E+07
 Avogadro constant [1/mol]                                  6.02214179000000E+23
 Boltzmann constant [J/K]                                   1.38065040000000E-23
 Atomic mass unit [kg]                                      1.66053878200000E-27
 Bohr radius [m]                                            5.29177208590000E-11

 *** Conversion factors ***

 [u] -> [a.u.]                                              1.82288848426455E+03
 [Angstrom] -> [Bohr] = [a.u.]                              1.88972613288564E+00
 [a.u.] = [Bohr] -> [Angstrom]                              5.29177208590000E-01
 [a.u.] -> [s]                                              2.41888432650478E-17
 [a.u.] -> [fs]                                             2.41888432650478E-02
 [a.u.] -> [J]                                              4.35974393937059E-18
 [a.u.] -> [N]                                              8.23872205491840E-08
 [a.u.] -> [K]                                              3.15774647902944E+05
 [a.u.] -> [kJ/mol]                                         2.62549961709828E+03
 [a.u.] -> [kcal/mol]                                       6.27509468713739E+02
 [a.u.] -> [Pa]                                             2.94210107994716E+13
 [a.u.] -> [bar]                                            2.94210107994716E+08
 [a.u.] -> [atm]                                            2.90362800883016E+08
 [a.u.] -> [eV]                                             2.72113838565563E+01
 [a.u.] -> [Hz]                                             6.57968392072181E+15
 [a.u.] -> [1/cm] (wave numbers)                            2.19474631370540E+05
 [a.u./Bohr**2] -> [1/cm]                                   5.14048714338585E+03
 

 CELL_TOP| Volume [angstrom^3]:                                     12686.086737
 CELL_TOP| Vector a [angstrom    16.869     0.000     0.000   |a| =    16.869000
 CELL_TOP| Vector b [angstrom    -8.434    14.609     0.000   |b| =    16.868929
 CELL_TOP| Vector c [angstrom     0.000     0.000    51.478   |c| =    51.477900
 CELL_TOP| Angle (b,c), alpha [degree]:                                90.000000
 CELL_TOP| Angle (a,c), beta  [degree]:                                90.000000
 CELL_TOP| Angle (a,b), gamma [degree]:                               120.000140
 CELL_TOP| Numerically orthorhombic:                                          NO
 
 GENERATE|  Preliminary Number of Bonds generated:                             0
 GENERATE|  Achieved consistency in connectivity generation.

 CELL| Volume [angstrom^3]:                                         12686.086737
 CELL| Vector a [angstrom]:      16.869     0.000     0.000   |a| =    16.869000
 CELL| Vector b [angstrom]:      -8.434    14.609     0.000   |b| =    16.868929
 CELL| Vector c [angstrom]:       0.000     0.000    51.478   |c| =    51.477900
 CELL| Angle (b,c), alpha [degree]:                                    90.000000
 CELL| Angle (a,c), beta  [degree]:                                    90.000000
 CELL| Angle (a,b), gamma [degree]:                                   120.000140
 CELL| Numerically orthorhombic:                                              NO

 CELL_REF| Volume [angstrom^3]:                                     12686.086737
 CELL_REF| Vector a [angstrom    16.869     0.000     0.000   |a| =    16.869000
 CELL_REF| Vector b [angstrom    -8.434    14.609     0.000   |b| =    16.868929
 CELL_REF| Vector c [angstrom     0.000     0.000    51.478   |c| =    51.477900
 CELL_REF| Angle (b,c), alpha [degree]:                                90.000000
 CELL_REF| Angle (a,c), beta  [degree]:                                90.000000
 CELL_REF| Angle (a,b), gamma [degree]:                               120.000140
 CELL_REF| Numerically orthorhombic:                                          NO

 *******************************************************************************
 *******************************************************************************
 **                                                                           **
 **     #####                         ##              ##                      **
 **    ##   ##            ##          ##              ##                      **
 **   ##     ##                       ##            ######                    **
 **   ##     ##  ##   ##  ##   #####  ##  ##   ####   ##    #####    #####    **
 **   ##     ##  ##   ##  ##  ##      ## ##   ##      ##   ##   ##  ##   ##   **
 **   ##  ## ##  ##   ##  ##  ##      ####     ###    ##   ######   ######    **
 **    ##  ###   ##   ##  ##  ##      ## ##      ##   ##   ##       ##        **
 **     #######   #####   ##   #####  ##  ##  ####    ##    #####   ##        **
 **           ##                                                    ##        **
 **                                                                           **
 **                                                ... make the atoms dance   **
 **                                                                           **
 **            Copyright (C) by CP2K developers group (2000-2022)             **
 **                      J. Chem. Phys. 152, 194103 (2020)                    **
 **                                                                           **
 *******************************************************************************

 DFT| Spin restricted Kohn-Sham (RKS) calculation                            RKS
 DFT| Multiplicity                                                             1
 DFT| Number of spin states                                                    1
 DFT| Charge                                                                   0
 DFT| Self-interaction correction (SIC)                                       NO
 DFT| Cutoffs: density                                              1.000000E-10
 DFT|          gradient                                             1.000000E-10
 DFT|          tau                                                  1.000000E-10
 DFT|          cutoff_smoothing_range                               0.000000E+00
 DFT| XC density smoothing                                                  NONE
 DFT| XC derivatives                                                          PW

 FUNCTIONAL| PBE:
 FUNCTIONAL| J.P.Perdew, K.Burke, M.Ernzerhof, Phys. Rev. Letter, vol. 77, n 18,
 FUNCTIONAL|  pp. 3865-3868, (1996){spin unpolarized}                           

 vdW POTENTIAL|                                                   Pair Potential
 vdW POTENTIAL|          DFT-D3 (Version 3.1)
 vdW POTENTIAL|          Potential Form: S. Grimme et al, JCP 132: 154104 (2010)
 vdW POTENTIAL|          Zero Damping
 vdW POTENTIAL|          Cutoff Radius [Bohr]:                             20.00
 vdW POTENTIAL|          s6 Scaling Factor:                               1.0000
 vdW POTENTIAL|          sr6 Scaling Factor:                              1.2170
 vdW POTENTIAL|          s8 Scaling Factor:                               0.7220
 vdW POTENTIAL|          Cutoff for CN calculation:                   0.1000E-05

 QS| Method:                                                                 GPW
 QS| Density plane wave grid type                        NON-SPHERICAL FULLSPACE
 QS| Number of grid levels:                                                    4
 QS| Density cutoff [a.u.]:                                                200.0
 QS| Multi grid cutoff [a.u.]: 1) grid level                               200.0
 QS|                           2) grid level                                66.7
 QS|                           3) grid level                                22.2
 QS|                           4) grid level                                 7.4
 QS| Grid level progression factor:                                          3.0
 QS| Relative density cutoff [a.u.]:                                        20.0
 QS| Interaction thresholds: eps_pgf_orb:                                3.2E-07
 QS|                         eps_filter_matrix:                          0.0E+00
 QS|                         eps_core_charge:                            1.0E-15
 QS|                         eps_rho_gspace:                             1.0E-13
 QS|                         eps_rho_rspace:                             1.0E-13
 QS|                         eps_gvg_rspace:                             3.2E-07
 QS|                         eps_ppl:                                    1.0E-02
 QS|                         eps_ppnl:                                   3.2E-09


 ATOMIC KIND INFORMATION

  1. Atomic kind: Pt                                    Number of atoms:     216

     Orbital Basis Set                      DZVP-A5-Q10-323-MOL-T1-DERIVED_SET-1

       Number of orbital shell sets:                                           1
       Number of orbital shells:                                               6
       Number of primitive Cartesian functions:                                5
       Number of Cartesian basis functions:                                   23
       Number of spherical basis functions:                                   20
       Norm type:                                                              2

       Normalised Cartesian orbitals:

                        Set   Shell   Orbital            Exponent    Coefficient

                          1       1    2s                2.521825       0.177473
                                                         1.453920      -0.063399
                                                         0.614053      -0.407089
                                                         0.232656       0.262254
                                                         0.074788       0.047371

                          1       2    3s                2.521825      -0.049056
                                                         1.453920       0.044904
                                                         0.614053      -0.009756
                                                         0.232656      -0.144709
                                                         0.074788       0.144085

                          1       3    3px               2.521825      -0.317572
                                                         1.453920       0.534826
                                                         0.614053      -0.489458
                                                         0.232656       0.245631
                                                         0.074788       0.018221
                          1       3    3py               2.521825      -0.317572
                                                         1.453920       0.534826
                                                         0.614053      -0.489458
                                                         0.232656       0.245631
                                                         0.074788       0.018221
                          1       3    3pz               2.521825      -0.317572
                                                         1.453920       0.534826
                                                         0.614053      -0.489458
                                                         0.232656       0.245631
                                                         0.074788       0.018221

                          1       4    4dx2              2.521825       3.008522
                                                         1.453920      -1.224251
                                                         0.614053       0.225691
                                                         0.232656       0.125144
                                                         0.074788      -0.015348
                          1       4    4dxy              2.521825       5.210912
                                                         1.453920      -2.120465
                                                         0.614053       0.390909
                                                         0.232656       0.216756
                                                         0.074788      -0.026584
                          1       4    4dxz              2.521825       5.210912
                                                         1.453920      -2.120465
                                                         0.614053       0.390909
                                                         0.232656       0.216756
                                                         0.074788      -0.026584
                          1       4    4dy2              2.521825       3.008522
                                                         1.453920      -1.224251
                                                         0.614053       0.225691
                                                         0.232656       0.125144
                                                         0.074788      -0.015348
                          1       4    4dyz              2.521825       5.210912
                                                         1.453920      -2.120465
                                                         0.614053       0.390909
                                                         0.232656       0.216756
                                                         0.074788      -0.026584
                          1       4    4dz2              2.521825       3.008522
                                                         1.453920      -1.224251
                                                         0.614053       0.225691
                                                         0.232656       0.125144
                                                         0.074788      -0.015348

                          1       5    5dx2              2.521825       0.698026
                                                         1.453920      -1.511486
                                                         0.614053      -0.335394
                                                         0.232656      -0.025564
                                                         0.074788      -0.002699
                          1       5    5dxy              2.521825       1.209017
                                                         1.453920      -2.617970
                                                         0.614053      -0.580920
                                                         0.232656      -0.044277
                                                         0.074788      -0.004674
                          1       5    5dxz              2.521825       1.209017
                                                         1.453920      -2.617970
                                                         0.614053      -0.580920
                                                         0.232656      -0.044277
                                                         0.074788      -0.004674
                          1       5    5dy2              2.521825       0.698026
                                                         1.453920      -1.511486
                                                         0.614053      -0.335394
                                                         0.232656      -0.025564
                                                         0.074788      -0.002699
                          1       5    5dyz              2.521825       1.209017
                                                         1.453920      -2.617970
                                                         0.614053      -0.580920
                                                         0.232656      -0.044277
                                                         0.074788      -0.004674
                          1       5    5dz2              2.521825       0.698026
                                                         1.453920      -1.511486
                                                         0.614053      -0.335394
                                                         0.232656      -0.025564
                                                         0.074788      -0.002699

                          1       6    6dx2              2.521825       0.831079
                                                         1.453920      -0.709226
                                                         0.614053      -0.137351
                                                         0.232656       0.068642
                                                         0.074788       0.011745
                          1       6    6dxy              2.521825       1.439472
                                                         1.453920      -1.228415
                                                         0.614053      -0.237899
                                                         0.232656       0.118891
                                                         0.074788       0.020343
                          1       6    6dxz              2.521825       1.439472
                                                         1.453920      -1.228415
                                                         0.614053      -0.237899
                                                         0.232656       0.118891
                                                         0.074788       0.020343
                          1       6    6dy2              2.521825       0.831079
                                                         1.453920      -0.709226
                                                         0.614053      -0.137351
                                                         0.232656       0.068642
                                                         0.074788       0.011745
                          1       6    6dyz              2.521825       1.439472
                                                         1.453920      -1.228415
                                                         0.614053      -0.237899
                                                         0.232656       0.118891
                                                         0.074788       0.020343
                          1       6    6dz2              2.521825       0.831079
                                                         1.453920      -0.709226
                                                         0.614053      -0.137351
                                                         0.232656       0.068642
                                                         0.074788       0.011745

       Atomic covalent radius [Angstrom]:                                  1.300

       Atomic van der Waals radius [Angstrom]:                             1.750

     GTH Potential information for                                   GTH-PBE-q10

       Description:                       Goedecker-Teter-Hutter pseudopotential
                                           Goedecker et al., PRB 54, 1703 (1996)
                                          Hartwigsen et al., PRB 58, 3641 (1998)
                                                      Krack, TCA 114, 145 (2005)

       Gaussian exponent of the core charge distribution:               1.317676
       Electronic configuration (s p d ...):                           1   0   9

       Parameters of the local part of the GTH pseudopotential:

                          rloc        C1          C2          C3          C4
                        0.616000   11.313635

       Parameters of the non-local part of the GTH pseudopotential:

                   l      r(l)      h(i,j,l)

                   0    0.550904    4.733491   -1.784594
                                   -1.784594    2.303901
                   1    0.674138    2.534798   -1.778066
                                   -1.778066    2.103836
                   2    0.457392   -7.264011    2.558665
                                    2.558665   -2.901253


 MOLECULE KIND INFORMATION


 All atoms are their own molecule, skipping detailed information


 TOTAL NUMBERS AND MAXIMUM NUMBERS

  Total number of            - Atomic kinds:                                   1
                             - Atoms:                                        216
                             - Shell sets:                                   216
                             - Shells:                                      1296
                             - Primitive Cartesian functions:               1080
                             - Cartesian basis functions:                   4968
                             - Spherical basis functions:                   4320

  Maximum angular momentum of- Orbital basis functions:                        2
                             - Local part of the GTH pseudopotential:          0
                             - Non-local part of the GTH pseudopotential:      4


 MODULE QUICKSTEP:  ATOMIC COORDINATES IN angstrom

 Atom  Kind  Element       X           Y           Z          Z(eff)       Mass
    1   1 Pt  78       2.218851    0.314470   20.019937      10.0000    195.0840
    2   1 Pt  78       4.978852    0.424470   19.879934      10.0000    195.0840
    3   1 Pt  78       7.678852    0.374470   19.899934      10.0000    195.0840
    4   1 Pt  78      10.638852    0.324470   20.029935      10.0000    195.0840
    5   1 Pt  78      13.398852    0.354470   19.999937      10.0000    195.0840
    6   1 Pt  78      16.218851    0.504470   19.979932      10.0000    195.0840
    7   1 Pt  78       3.538851    2.964470   19.959936      10.0000    195.0840
    8   1 Pt  78       6.358851    2.784470   19.979932      10.0000    195.0840
    9   1 Pt  78       9.218851    2.774470   20.039934      10.0000    195.0840
   10   1 Pt  78      12.098853    2.684470   20.129934      10.0000    195.0840
   11   1 Pt  78      14.808853    2.834470   19.999937      10.0000    195.0840
   12   1 Pt  78       0.728851    2.754470   19.869936      10.0000    195.0840
   13   1 Pt  78       5.058852    5.294470   19.849935      10.0000    195.0840
   14   1 Pt  78       7.818852    5.244470   19.879934      10.0000    195.0840
   15   1 Pt  78      10.618852    5.084470   20.109934      10.0000    195.0840
   16   1 Pt  78      13.368852    5.194470   19.999937      10.0000    195.0840
   17   1 Pt  78      -0.631149    5.234470   19.879934      10.0000    195.0840
   18   1 Pt  78       2.088852    5.314470   19.989935      10.0000    195.0840
   19   1 Pt  78       6.438852    7.614470   19.969934      10.0000    195.0840
   20   1 Pt  78       9.318852    7.524470   19.799936      10.0000    195.0840
   21   1 Pt  78      12.048852    7.554470   19.929937      10.0000    195.0840
   22   1 Pt  78      -2.021149    7.544470   19.949934      10.0000    195.0840
   23   1 Pt  78       0.778851    7.754471   20.039934      10.0000    195.0840
   24   1 Pt  78       3.628851    7.664470   19.999937      10.0000    195.0840
   25   1 Pt  78       7.838851   10.054470   19.949934      10.0000    195.0840
   26   1 Pt  78      10.598852    9.844470   19.719934      10.0000    195.0840
   27   1 Pt  78      -3.421149   10.144470   19.869936      10.0000    195.0840
   28   1 Pt  78      -0.711149   10.034470   19.969934      10.0000    195.0840
   29   1 Pt  78       2.218851   10.014470   20.049932      10.0000    195.0840
   30   1 Pt  78       4.978852   10.144470   20.039934      10.0000    195.0840
   31   1 Pt  78       9.198852   12.584471   20.029935      10.0000    195.0840
   32   1 Pt  78      -4.871149   12.594470   19.819933      10.0000    195.0840
   33   1 Pt  78      -2.011149   12.564470   19.889936      10.0000    195.0840
   34   1 Pt  78       0.898851   12.564470   19.809934      10.0000    195.0840
   35   1 Pt  78       3.678852   12.544470   19.979932      10.0000    195.0840
   36   1 Pt  78       6.368851   12.594470   19.989935      10.0000    195.0840
   37   1 Pt  78       0.728851    1.274470   22.409933      10.0000    195.0840
   38   1 Pt  78       3.658851    1.354470   22.229936      10.0000    195.0840
   39   1 Pt  78       6.458851    1.174470   22.389936      10.0000    195.0840
   40   1 Pt  78       9.238852    1.244470   22.339933      10.0000    195.0840
   41   1 Pt  78      12.078852    1.154470   22.419935      10.0000    195.0840
   42   1 Pt  78      14.848852    1.204470   22.379934      10.0000    195.0840
   43   1 Pt  78       2.168852    3.674470   22.179933      10.0000    195.0840
   44   1 Pt  78       5.188852    3.674470   22.229936      10.0000    195.0840
   45   1 Pt  78       7.858852    3.634470   22.279935      10.0000    195.0840
   46   1 Pt  78      10.818852    3.674470   22.449934      10.0000    195.0840
   47   1 Pt  78      13.498852    3.574470   22.339933      10.0000    195.0840
   48   1 Pt  78      -0.661149    3.604470   22.249933      10.0000    195.0840
   49   1 Pt  78       3.568851    6.044470   22.259935      10.0000    195.0840
   50   1 Pt  78       6.428852    6.044470   22.129934      10.0000    195.0840
   51   1 Pt  78       9.248852    6.054470   22.199934      10.0000    195.0840
   52   1 Pt  78      12.088851    6.064470   22.329935      10.0000    195.0840
   53   1 Pt  78      -2.051149    6.134470   22.309934      10.0000    195.0840
   54   1 Pt  78       0.728851    6.124470   22.329935      10.0000    195.0840
   55   1 Pt  78       5.078852    8.414471   22.339933      10.0000    195.0840
   56   1 Pt  78       7.858852    8.524470   22.229936      10.0000    195.0840
   57   1 Pt  78      10.528852    8.524470   22.139936      10.0000    195.0840
   58   1 Pt  78      -3.451149    8.504470   22.279935      10.0000    195.0840
   59   1 Pt  78      -0.661149    8.494471   22.259935      10.0000    195.0840
   60   1 Pt  78       2.168852    8.564470   22.309934      10.0000    195.0840
   61   1 Pt  78       6.398852   10.844471   22.299936      10.0000    195.0840
   62   1 Pt  78       9.188852   11.004470   22.229936      10.0000    195.0840
   63   1 Pt  78      -4.901149   11.064470   22.149934      10.0000    195.0840
   64   1 Pt  78      -2.111149   10.934470   22.219934      10.0000    195.0840
   65   1 Pt  78       0.678851   10.944470   22.279935      10.0000    195.0840
   66   1 Pt  78       3.588851   10.954470   22.379934      10.0000    195.0840
   67   1 Pt  78       7.808852   13.404470   22.239935      10.0000    195.0840
   68   1 Pt  78      -6.311149   13.524470   22.299936      10.0000    195.0840
   69   1 Pt  78      -3.451149   13.384470   22.169935      10.0000    195.0840
   70   1 Pt  78      -0.671149   13.344471   22.259935      10.0000    195.0840
   71   1 Pt  78       2.198851   13.394470   22.239935      10.0000    195.0840
   72   1 Pt  78       5.058852   13.344471   22.349935      10.0000    195.0840
   73   1 Pt  78      -7.621149   14.224470   24.599935      10.0000    195.0840
   74   1 Pt  78      -4.781149   14.264471   24.469934      10.0000    195.0840
   75   1 Pt  78      -1.981149   14.144471   24.589933      10.0000    195.0840
   76   1 Pt  78       0.758851   14.064470   24.679937      10.0000    195.0840
   77   1 Pt  78       3.628851   14.214471   24.689935      10.0000    195.0840
   78   1 Pt  78       6.458851   14.254470   24.749937      10.0000    195.0840
   79   1 Pt  78       2.168852    2.114470   24.539938      10.0000    195.0840
   80   1 Pt  78       5.098852    2.144470   24.579935      10.0000    195.0840
   81   1 Pt  78       7.888852    2.014470   24.719934      10.0000    195.0840
   82   1 Pt  78      10.658852    1.904470   24.699934      10.0000    195.0840
   83   1 Pt  78      13.548851    2.024470   24.699934      10.0000    195.0840
   84   1 Pt  78      -0.581149    2.014470   24.599935      10.0000    195.0840
   85   1 Pt  78       3.758851    4.544470   24.599935      10.0000    195.0840
   86   1 Pt  78       6.528852    4.554470   24.569936      10.0000    195.0840
   87   1 Pt  78       9.338852    4.514470   24.699934      10.0000    195.0840
   88   1 Pt  78      12.048852    4.434470   24.699934      10.0000    195.0840
   89   1 Pt  78      -2.001149    4.474470   24.599935      10.0000    195.0840
   90   1 Pt  78       0.858851    4.444470   24.539938      10.0000    195.0840
   91   1 Pt  78       5.078852    6.964470   24.609937      10.0000    195.0840
   92   1 Pt  78       7.838851    6.854470   24.609937      10.0000    195.0840
   93   1 Pt  78      10.618852    6.964470   24.509935      10.0000    195.0840
   94   1 Pt  78      -3.491149    6.914470   24.629934      10.0000    195.0840
   95   1 Pt  78      -0.531149    6.874470   24.669935      10.0000    195.0840
   96   1 Pt  78       2.248851    6.864470   24.609937      10.0000    195.0840
   97   1 Pt  78       6.438852    9.454470   24.609937      10.0000    195.0840
   98   1 Pt  78       9.258851    9.364470   24.499937      10.0000    195.0840
   99   1 Pt  78      -4.771149    9.434470   24.439935      10.0000    195.0840
  100   1 Pt  78      -1.951149    9.284471   24.559934      10.0000    195.0840
  101   1 Pt  78       0.958851    9.314470   24.639936      10.0000    195.0840
  102   1 Pt  78       3.648852    9.374471   24.659933      10.0000    195.0840
  103   1 Pt  78       7.858852   11.804470   24.679937      10.0000    195.0840
  104   1 Pt  78      -6.261149   11.814470   24.489935      10.0000    195.0840
  105   1 Pt  78      -3.391149   11.744471   24.569936      10.0000    195.0840
  106   1 Pt  78      -0.631149   11.684470   24.579935      10.0000    195.0840
  107   1 Pt  78       2.188851   11.784471   24.679937      10.0000    195.0840
  108   1 Pt  78       4.968851   11.814470   24.669935      10.0000    195.0840
  109   1 Pt  78       2.188851    0.474470   26.817933      10.0000    195.0840
  110   1 Pt  78       5.048851    0.364470   26.737933      10.0000    195.0840
  111   1 Pt  78       7.818852    0.384470   26.927933      10.0000    195.0840
  112   1 Pt  78      10.548851    0.334470   27.037933      10.0000    195.0840
  113   1 Pt  78      13.368852    0.374470   27.057934      10.0000    195.0840
  114   1 Pt  78      16.178852    0.374470   26.937933      10.0000    195.0840
  115   1 Pt  78       3.598852    2.754470   26.857933      10.0000    195.0840
  116   1 Pt  78       6.368851    2.914470   26.937933      10.0000    195.0840
  117   1 Pt  78       9.198852    2.924470   26.907933      10.0000    195.0840
  118   1 Pt  78      11.978853    2.814470   26.987933      10.0000    195.0840
  119   1 Pt  78      14.838852    2.834470   26.987933      10.0000    195.0840
  120   1 Pt  78       0.748851    2.764470   26.957933      10.0000    195.0840
  121   1 Pt  78       4.988851    5.314470   26.957933      10.0000    195.0840
  122   1 Pt  78       7.748851    5.364470   26.957933      10.0000    195.0840
  123   1 Pt  78      10.548851    5.344470   26.997933      10.0000    195.0840
  124   1 Pt  78      13.308852    5.264470   26.917933      10.0000    195.0840
  125   1 Pt  78      -0.601149    5.254470   26.917933      10.0000    195.0840
  126   1 Pt  78       2.268851    5.214470   26.887933      10.0000    195.0840
  127   1 Pt  78       6.408852    7.754471   26.847933      10.0000    195.0840
  128   1 Pt  78       9.178852    7.814470   26.947933      10.0000    195.0840
  129   1 Pt  78      12.018852    7.724470   26.907933      10.0000    195.0840
  130   1 Pt  78      -2.091149    7.644470   26.877933      10.0000    195.0840
  131   1 Pt  78       0.778851    7.624470   26.907933      10.0000    195.0840
  132   1 Pt  78       3.618852    7.734470   26.907933      10.0000    195.0840
  133   1 Pt  78       7.788852   10.194469   26.897933      10.0000    195.0840
  134   1 Pt  78      10.638852   10.164470   26.797933      10.0000    195.0840
  135   1 Pt  78      -3.441149   10.174470   26.877933      10.0000    195.0840
  136   1 Pt  78      -0.651149   10.064470   26.917933      10.0000    195.0840
  137   1 Pt  78       2.128851   10.214470   27.097933      10.0000    195.0840
  138   1 Pt  78       5.018852   10.154470   26.887933      10.0000    195.0840
  139   1 Pt  78       9.258851   12.584471   26.897933      10.0000    195.0840
  140   1 Pt  78      -4.811149   12.544470   26.727933      10.0000    195.0840
  141   1 Pt  78      -1.971149   12.534471   26.907933      10.0000    195.0840
  142   1 Pt  78       0.708851   12.494471   26.997933      10.0000    195.0840
  143   1 Pt  78       3.458852   12.704471   27.047933      10.0000    195.0840
  144   1 Pt  78       6.378852   12.604470   26.987933      10.0000    195.0840
  145   1 Pt  78       0.798851    1.234470   29.257934      10.0000    195.0840
  146   1 Pt  78       3.458852    1.284470   29.157934      10.0000    195.0840
  147   1 Pt  78       6.258851    1.124470   29.207933      10.0000    195.0840
  148   1 Pt  78       8.998851    1.234470   29.137933      10.0000    195.0840
  149   1 Pt  78      11.908852    1.384470   29.387934      10.0000    195.0840
  150   1 Pt  78      14.778852    1.234470   29.287933      10.0000    195.0840
  151   1 Pt  78       2.068851    3.694470   29.277934      10.0000    195.0840
  152   1 Pt  78       4.908852    3.614470   29.107933      10.0000    195.0840
  153   1 Pt  78       7.658852    3.604470   29.227934      10.0000    195.0840
  154   1 Pt  78      10.548851    3.654470   29.207933      10.0000    195.0840
  155   1 Pt  78      13.368852    3.654470   29.297934      10.0000    195.0840
  156   1 Pt  78      -0.661149    3.634470   29.327934      10.0000    195.0840
  157   1 Pt  78       3.458852    6.254470   29.107933      10.0000    195.0840
  158   1 Pt  78       6.298851    6.034470   29.317934      10.0000    195.0840
  159   1 Pt  78       9.168851    6.074470   29.347933      10.0000    195.0840
  160   1 Pt  78      11.958851    6.154470   29.257934      10.0000    195.0840
  161   1 Pt  78      -2.171149    6.004470   29.337933      10.0000    195.0840
  162   1 Pt  78       0.678851    6.024470   29.177934      10.0000    195.0840
  163   1 Pt  78       4.988851    8.564470   29.197934      10.0000    195.0840
  164   1 Pt  78       7.708851    8.484470   29.307933      10.0000    195.0840
  165   1 Pt  78      10.488852    8.604470   29.297934      10.0000    195.0840
  166   1 Pt  78      -3.591149    8.564470   29.227934      10.0000    195.0840
  167   1 Pt  78      -0.741149    8.294470   29.267934      10.0000    195.0840
  168   1 Pt  78       1.918851    8.584471   29.237933      10.0000    195.0840
  169   1 Pt  78       6.338852   11.064470   29.277934      10.0000    195.0840
  170   1 Pt  78       9.088851   10.984470   29.217933      10.0000    195.0840
  171   1 Pt  78      -4.881149   11.084470   29.217933      10.0000    195.0840
  172   1 Pt  78      -2.121149   11.014470   29.247934      10.0000    195.0840
  173   1 Pt  78       0.658851   11.024470   29.297934      10.0000    195.0840
  174   1 Pt  78       3.438852   11.054471   29.387934      10.0000    195.0840
  175   1 Pt  78       7.688852   13.424471   29.277934      10.0000    195.0840
  176   1 Pt  78      -6.281149   13.424471   29.197934      10.0000    195.0840
  177   1 Pt  78      -3.501149   13.484470   29.077933      10.0000    195.0840
  178   1 Pt  78      -0.661149   13.454471   29.247934      10.0000    195.0840
  179   1 Pt  78       2.268851   13.534470   29.317934      10.0000    195.0840
  180   1 Pt  78       4.908852   13.464470   29.397933      10.0000    195.0840
  181   1 Pt  78      -7.561149   14.254470   31.507934      10.0000    195.0840
  182   1 Pt  78      -4.941149   14.204470   31.477933      10.0000    195.0840
  183   1 Pt  78      -2.091149   14.174470   31.687934      10.0000    195.0840
  184   1 Pt  78       0.648851   14.294471   31.687934      10.0000    195.0840
  185   1 Pt  78       3.458852   14.204470   31.707933      10.0000    195.0840
  186   1 Pt  78       6.308852   14.084471   31.727934      10.0000    195.0840
  187   1 Pt  78       2.178851    2.074470   31.697934      10.0000    195.0840
  188   1 Pt  78       4.898851    1.994470   31.577933      10.0000    195.0840
  189   1 Pt  78       7.648852    2.054470   31.547934      10.0000    195.0840
  190   1 Pt  78      10.498852    2.044470   31.617933      10.0000    195.0840
  191   1 Pt  78      13.338851    1.944470   31.547934      10.0000    195.0840
  192   1 Pt  78      -0.621149    1.914470   31.607933      10.0000    195.0840
  193   1 Pt  78       3.538851    4.514470   31.457934      10.0000    195.0840
  194   1 Pt  78       6.268852    4.384470   31.757934      10.0000    195.0840
  195   1 Pt  78       9.048852    4.254470   31.497934      10.0000    195.0840
  196   1 Pt  78      11.768853    4.474470   31.497934      10.0000    195.0840
  197   1 Pt  78      -2.181149    4.374470   31.647934      10.0000    195.0840
  198   1 Pt  78       0.618851    4.504470   31.557934      10.0000    195.0840
  199   1 Pt  78       4.788851    6.874470   31.507934      10.0000    195.0840
  200   1 Pt  78       7.688852    6.794470   31.687934      10.0000    195.0840
  201   1 Pt  78      10.408852    6.964470   31.627933      10.0000    195.0840
  202   1 Pt  78      -3.591149    6.924470   31.527934      10.0000    195.0840
  203   1 Pt  78      -0.701149    6.854470   31.707933      10.0000    195.0840
  204   1 Pt  78       1.978851    6.854470   31.517934      10.0000    195.0840
  205   1 Pt  78       6.158852    9.304470   31.597934      10.0000    195.0840
  206   1 Pt  78       8.938852    9.344470   31.717934      10.0000    195.0840
  207   1 Pt  78      -5.041149    9.404470   31.607933      10.0000    195.0840
  208   1 Pt  78      -2.281149    9.354470   31.497934      10.0000    195.0840
  209   1 Pt  78       0.548851    9.344470   31.647934      10.0000    195.0840
  210   1 Pt  78       3.468851    9.334471   31.477933      10.0000    195.0840
  211   1 Pt  78       7.708851   11.744471   31.687934      10.0000    195.0840
  212   1 Pt  78      -6.341149   11.804470   31.547934      10.0000    195.0840
  213   1 Pt  78      -3.501149   11.744471   31.627933      10.0000    195.0840
  214   1 Pt  78      -0.661149   11.734470   31.517934      10.0000    195.0840
  215   1 Pt  78       2.028851   11.824470   31.607933      10.0000    195.0840
  216   1 Pt  78       4.878851   11.724470   31.627933      10.0000    195.0840




 SCF PARAMETERS         Density guess:                                   RESTART
                        --------------------------------------------------------
                        max_scf:                                             500
                        max_scf_history:                                       0
                        max_diis:                                              4
                        --------------------------------------------------------
                        eps_scf:                                        1.00E-06
                        eps_scf_history:                                0.00E+00
                        eps_diis:                                       1.00E-01
                        eps_eigval:                                     1.00E-05
                        --------------------------------------------------------
                        level_shift [a.u.]:                             0.000000
                        added MOs                                       500    0
                        --------------------------------------------------------
                        Mixing method:                            BROYDEN_MIXING
                                                charge density mixing in g-space
                        --------------------------------------------------------
                        Smear method:                                FERMI_DIRAC
                        Electronic temperature [K]:                        300.0
                        Electronic temperature [a.u.]:                  9.50E-04
                        Accuracy threshold:                             1.00E-10
                        --------------------------------------------------------
                        No outer SCF

 PW_GRID| Information for grid number                                          1
 PW_GRID| Grid distributed over                                    32 processors
 PW_GRID| Real space group dimensions                                    32    1
 PW_GRID| the grid is blocked:                                                NO
 PW_GRID| Cutoff [a.u.]                                                    200.0
 PW_GRID| spherical cutoff:                                                   NO
 PW_GRID|   Bounds   1           -105     104                Points:         210
 PW_GRID|   Bounds   2           -105     104                Points:         210
 PW_GRID|   Bounds   3           -315     314                Points:         630
 PW_GRID| Volume element (a.u.^3)  0.3081E-02     Volume (a.u.^3)     85609.9578
 PW_GRID| Grid span                                                    FULLSPACE
 PW_GRID|   Distribution                         Average         Max         Min
 PW_GRID|   G-Vectors                           868218.8      868350      868140
 PW_GRID|   G-Rays                                4134.4        4135        4134
 PW_GRID|   Real Space Points                   868218.8      926100      793800

 PW_GRID| Information for grid number                                          2
 PW_GRID| Number of the reference grid                                         1
 PW_GRID| Grid distributed over                                    32 processors
 PW_GRID| Real space group dimensions                                    32    1
 PW_GRID| the grid is blocked:                                                NO
 PW_GRID| Cutoff [a.u.]                                                     66.7
 PW_GRID| spherical cutoff:                                                   NO
 PW_GRID|   Bounds   1            -60      59                Points:         120
 PW_GRID|   Bounds   2            -60      59                Points:         120
 PW_GRID|   Bounds   3           -180     179                Points:         360
 PW_GRID| Volume element (a.u.^3)  0.1651E-01     Volume (a.u.^3)     85609.9578
 PW_GRID| Grid span                                                    FULLSPACE
 PW_GRID|   Distribution                         Average         Max         Min
 PW_GRID|   G-Vectors                           162000.0      162840      161280
 PW_GRID|   G-Rays                                1350.0        1357        1344
 PW_GRID|   Real Space Points                   162000.0      172800      129600

 PW_GRID| Information for grid number                                          3
 PW_GRID| Number of the reference grid                                         1
 PW_GRID| Grid distributed over                                    32 processors
 PW_GRID| Real space group dimensions                                    32    1
 PW_GRID| the grid is blocked:                                                NO
 PW_GRID| Cutoff [a.u.]                                                     22.2
 PW_GRID| spherical cutoff:                                                   NO
 PW_GRID|   Bounds   1            -35      34                Points:          70
 PW_GRID|   Bounds   2            -35      34                Points:          70
 PW_GRID|   Bounds   3           -105     104                Points:         210
 PW_GRID| Volume element (a.u.^3)  0.8320E-01     Volume (a.u.^3)     85609.9578
 PW_GRID| Grid span                                                    FULLSPACE
 PW_GRID|   Distribution                         Average         Max         Min
 PW_GRID|   G-Vectors                            32156.2       32340       31990
 PW_GRID|   G-Rays                                 459.4         462         457
 PW_GRID|   Real Space Points                    32156.2       44100       29400

 PW_GRID| Information for grid number                                          4
 PW_GRID| Number of the reference grid                                         1
 PW_GRID| Grid distributed over                                    32 processors
 PW_GRID| Real space group dimensions                                    32    1
 PW_GRID| the grid is blocked:                                                NO
 PW_GRID| Cutoff [a.u.]                                                      7.4
 PW_GRID| spherical cutoff:                                                   NO
 PW_GRID|   Bounds   1            -20      19                Points:          40
 PW_GRID|   Bounds   2            -20      19                Points:          40
 PW_GRID|   Bounds   3            -60      59                Points:         120
 PW_GRID| Volume element (a.u.^3)  0.4459         Volume (a.u.^3)     85609.9578
 PW_GRID| Grid span                                                    FULLSPACE
 PW_GRID|   Distribution                         Average         Max         Min
 PW_GRID|   G-Vectors                             6000.0        6120        5920
 PW_GRID|   G-Rays                                 150.0         153         148
 PW_GRID|   Real Space Points                     6000.0        9600        4800

 POISSON| Solver                                          IMPLICIT (GENERALIZED)
 POISSON| Boundary Condition                                PERIODIC & DIRICHLET
 POISSON| Maximum number of iterations                                        30
 POISSON| Convergence threshold                                         1.00E-08
 POISSON| Dielectric Constant                                              80.00
 POISSON| Relaxation parameter                                          1.00E+00

 RS_GRID| Information for grid number                                          1
 RS_GRID|   Bounds   1           -105     104                Points:         210
 RS_GRID|   Bounds   2           -105     104                Points:         210
 RS_GRID|   Bounds   3           -315     314                Points:         630
 RS_GRID| Real space distribution over                                 32 groups
 RS_GRID| Real space distribution along direction                              3
 RS_GRID| Border size                                                         54
 RS_GRID|   Distribution                         Average         Max         Min
 RS_GRID|   Planes                                 127.7         128         127

 RS_GRID| Information for grid number                                          2
 RS_GRID|   Bounds   1            -60      59                Points:         120
 RS_GRID|   Bounds   2            -60      59                Points:         120
 RS_GRID|   Bounds   3           -180     179                Points:         360
 RS_GRID| Real space distribution over                                 32 groups
 RS_GRID| Real space distribution along direction                              3
 RS_GRID| Border size                                                         36
 RS_GRID|   Distribution                         Average         Max         Min
 RS_GRID|   Planes                                  83.2          84          83

 RS_GRID| Information for grid number                                          3
 RS_GRID|   Bounds   1            -35      34                Points:          70
 RS_GRID|   Bounds   2            -35      34                Points:          70
 RS_GRID|   Bounds   3           -105     104                Points:         210
 RS_GRID| Real space fully replicated
 RS_GRID| Group size                                                           1

 RS_GRID| Information for grid number                                          4
 RS_GRID|   Bounds   1            -20      19                Points:          40
 RS_GRID|   Bounds   2            -20      19                Points:          40
 RS_GRID|   Bounds   3            -60      59                Points:         120
 RS_GRID| Real space fully replicated
 RS_GRID| Group size                                                           1

 Number of electrons:                                                       2160
 Number of occupied orbitals:                                               1080
 Number of molecular orbitals:                                              1580

 Number of orbital functions:                                               4320
 Number of independent orbital functions:                                   4320

 Extrapolation method: initial_guess


 SCF WAVEFUNCTION OPTIMIZATION

  Step     Update method      Time    Convergence         Total energy    Change
  ------------------------------------------------------------------------------

  POISSON| IMPLICIT (GENERALIZED) SOLVER ---------------------------------------
  POISSON| Preparing Dirichlet regions ...
  POISSON| Dirichlet region    1
  POISSON|     type : axis-aligned planar
  POISSON|     applied potential :   0.0000E+00  [Eh/e]
  POISSON| Dirichlet region    2
  POISSON|     type : axis-aligned planar
  POISSON|     applied potential :   0.3675E-01  [Eh/e]
  POISSON| ... Done. 
  ------------------------------------------------------------------------------

  POISSON|   iter        pres error      nabs error        E_hartree    delta E
  POISSON|      1        0.7333E-03      0.3339E-01    1992.4261955680  0.20E+04
  POISSON|      2        0.1549E-14      0.7333E-03    1992.4296836384  0.35E-02
  POISSON| Poisson solver converged in 2 iterations.
     1 NoMix/Diag. 0.30E+00   11.1     0.18983952     -5670.8720808790 -5.67E+03
  POISSON|   iter        pres error      nabs error        E_hartree    delta E
  POISSON|      1        0.7860E-03      0.3316E-01    1992.2778374144 -0.15E+00
  POISSON|      2        0.1173E-14      0.7860E-03    1992.2815764467  0.37E-02
  POISSON| Poisson solver converged in 2 iterations.
     2 Broy./Diag. 0.30E+00   13.3     0.22164443     -5670.6381402684  2.34E-01
  POISSON|   iter        pres error      nabs error        E_hartree    delta E
  POISSON|      1        0.1129E-03      0.5228E-03    1992.4439317387  0.16E+00
  POISSON|      2        0.1142E-16      0.1129E-03    1992.4433944651 -0.54E-03
  POISSON| Poisson solver converged in 2 iterations.
     3 Broy./Diag. 0.30E+00   13.3     0.17079130     -5675.6003126018 -4.96E+00
  POISSON|   iter        pres error      nabs error        E_hartree    delta E
  POISSON|      1        0.9739E-04      0.3948E-03    1992.4896522859  0.46E-01
  POISSON|      2        0.5016E-16      0.9739E-04    1992.4901155618  0.46E-03
  POISSON| Poisson solver converged in 2 iterations.
     4 Broy./Diag. 0.30E+00   13.4     0.16617249     -5672.7297389382  2.87E+00
  POISSON|   iter        pres error      nabs error        E_hartree    delta E
  POISSON|      1        0.3574E-04      0.1411E-03    1992.5935233479  0.10E+00
  POISSON|      2        0.2181E-16      0.3574E-04    1992.5933533564 -0.17E-03
  POISSON| Poisson solver converged in 2 iterations.
     5 Broy./Diag. 0.30E+00   13.4     0.07972706     -5672.6699802672  5.98E-02
  POISSON|   iter        pres error      nabs error        E_hartree    delta E
  POISSON|      1        0.3333E-05      0.4130E-04    1992.6881989388  0.95E-01
  POISSON|      2        0.6243E-17      0.3333E-05    1992.6882147938  0.16E-04
  POISSON| Poisson solver converged in 2 iterations.
     6 Broy./Diag. 0.30E+00   13.4     0.03956869     -5672.7413903485 -7.14E-02
  POISSON|   iter        pres error      nabs error        E_hartree    delta E
  POISSON|      1        0.4062E-05      0.3677E-04    1992.7920470072  0.10E+00
  POISSON|      2        0.9587E-17      0.4062E-05    1992.7920663274  0.19E-04
  POISSON| Poisson solver converged in 2 iterations.
     7 Broy./Diag. 0.30E+00   13.4     0.02318844     -5672.3062882156  4.35E-01
  POISSON|   iter        pres error      nabs error        E_hartree    delta E
  POISSON|      1        0.1685E-05      0.3627E-04    1992.8615399835  0.69E-01
  POISSON|      2        0.1839E-17      0.1685E-05    1992.8615319689 -0.80E-05
  POISSON| Poisson solver converged in 2 iterations.
     8 Broy./Diag. 0.30E+00   13.6     0.01999684     -5672.0921408426  2.14E-01
  POISSON|   iter        pres error      nabs error        E_hartree    delta E
  POISSON|      1        0.4848E-06      0.1120E-04    1992.8880895873  0.27E-01
  POISSON|      2        0.8617E-18      0.4848E-06    1992.8880872811 -0.23E-05
  POISSON| Poisson solver converged in 2 iterations.
     9 Broy./Diag. 0.30E+00   13.5     0.00960864     -5672.3834401975 -2.91E-01
  POISSON|   iter        pres error      nabs error        E_hartree    delta E
  POISSON|      1        0.2385E-06      0.5636E-05    1992.9019573161  0.14E-01
  POISSON|      2        0.0000E+00      0.2385E-06    1992.9019561815 -0.11E-05
  POISSON| Poisson solver converged in 2 iterations.
    10 Broy./Diag. 0.30E+00   13.5     0.00415454     -5672.2723927558  1.11E-01
  POISSON|   iter        pres error      nabs error        E_hartree    delta E
  POISSON|      1        0.1098E-06      0.4843E-05    1992.9102846886  0.83E-02
  POISSON|      2        0.3333E-17      0.1098E-06    1992.9102852109  0.52E-06
  POISSON| Poisson solver converged in 2 iterations.
    11 Broy./Diag. 0.30E+00   13.6     0.00426194     -5672.2385836783  3.38E-02
  POISSON|   iter        pres error      nabs error        E_hartree    delta E
  POISSON|      1        0.2760E-06      0.5660E-05    1992.9167047715  0.64E-02
  POISSON|      2        0.3567E-17      0.2760E-06    1992.9167060844  0.13E-05
  POISSON| Poisson solver converged in 2 iterations.
    12 Broy./Diag. 0.30E+00   13.6     0.00346857     -5672.2256509505  1.29E-02
  POISSON|   iter        pres error      nabs error        E_hartree    delta E
  POISSON|      1        0.1366E-08      0.3446E-05    1992.9232506033  0.65E-02
  POISSON| Poisson solver converged in 1 iteration. 
    13 Broy./Diag. 0.30E+00   12.1     0.00185472     -5672.2573969642 -3.17E-02
  POISSON|   iter        pres error      nabs error        E_hartree    delta E
  POISSON|      1        0.2906E-07      0.1345E-05    1992.9241739388  0.92E-03
  POISSON|      2        0.3129E-18      0.2906E-07    1992.9241740771  0.14E-06
  POISSON| Poisson solver converged in 2 iterations.
    14 Broy./Diag. 0.30E+00   13.6     0.00097561     -5672.2449349160  1.25E-02
  POISSON|   iter        pres error      nabs error        E_hartree    delta E
  POISSON|      1        0.8186E-06      0.3591E-05    1992.9243429007  0.17E-03
  POISSON|      2        0.1571E-17      0.8186E-06    1992.9243467944  0.39E-05
  POISSON| Poisson solver converged in 2 iterations.
    15 Broy./Diag. 0.30E+00   13.5     0.00196938     -5672.2409781287  3.96E-03
  POISSON|   iter        pres error      nabs error        E_hartree    delta E
  POISSON|      1        0.7249E-06      0.3004E-05    1992.9245309551  0.18E-03
  POISSON|      2        0.6635E-17      0.7249E-06    1992.9245275069 -0.34E-05
  POISSON| Poisson solver converged in 2 iterations.
    16 Broy./Diag. 0.30E+00   13.5     0.00208783     -5672.2432544108 -2.28E-03
  POISSON|   iter        pres error      nabs error        E_hartree    delta E
  POISSON|      1        0.7661E-07      0.1514E-05    1992.9246184132  0.91E-04
  POISSON|      2        0.2140E-17      0.7661E-07    1992.9246187777  0.36E-06
  POISSON| Poisson solver converged in 2 iterations.
    17 Broy./Diag. 0.30E+00   13.5     0.00048117     -5672.2496583676 -6.40E-03
  POISSON|   iter        pres error      nabs error        E_hartree    delta E
  POISSON|      1        0.1070E-06      0.1366E-05    1992.9249171142  0.30E-03
  POISSON|      2        0.5949E-18      0.1070E-06    1992.9249176232  0.51E-06
  POISSON| Poisson solver converged in 2 iterations.
    18 Broy./Diag. 0.30E+00   13.5     0.00035559     -5672.2481094686  1.55E-03
  POISSON|   iter        pres error      nabs error        E_hartree    delta E
  POISSON|      1        0.2604E-07      0.1476E-05    1992.9251886446  0.27E-03
  POISSON|      2        0.2788E-17      0.2604E-07    1992.9251887685  0.12E-06
  POISSON| Poisson solver converged in 2 iterations.
    19 Broy./Diag. 0.30E+00   13.5     0.00022212     -5672.2473454361  7.64E-04
  POISSON|   iter        pres error      nabs error        E_hartree    delta E
  POISSON|      1        0.3704E-07      0.8465E-06    1992.9254477523  0.26E-03
  POISSON|      2        0.9933E-19      0.3704E-07    1992.9254479285  0.18E-06
  POISSON| Poisson solver converged in 2 iterations.
    20 Broy./Diag. 0.30E+00   13.5     0.00022205     -5672.2505449617 -3.20E-03
  POISSON|   iter        pres error      nabs error        E_hartree    delta E
  POISSON|      1        0.6608E-08      0.9469E-06    1992.9259703832  0.52E-03
  POISSON| Poisson solver converged in 1 iteration. 
    21 Broy./Diag. 0.30E+00   12.1     0.00021485     -5672.2498610106  6.84E-04
  POISSON|   iter        pres error      nabs error        E_hartree    delta E
  POISSON|      1        0.2566E-07      0.1072E-05    1992.9264394463  0.47E-03
  POISSON|      2        0.1073E-18      0.2566E-07    1992.9264395684  0.12E-06
  POISSON| Poisson solver converged in 2 iterations.
    22 Broy./Diag. 0.30E+00   13.5     0.00020169     -5672.2484652480  1.40E-03
  POISSON|   iter        pres error      nabs error        E_hartree    delta E
  POISSON|      1        0.2483E-07      0.7471E-06    1992.9266934695  0.25E-03
  POISSON|      2        0.2655E-17      0.2483E-07    1992.9266935876  0.12E-06
  POISSON| Poisson solver converged in 2 iterations.
    23 Broy./Diag. 0.30E+00   13.6     0.00015265     -5672.2477365069  7.29E-04
  POISSON|   iter        pres error      nabs error        E_hartree    delta E
  POISSON|      1        0.4988E-08      0.7262E-06    1992.9269680785  0.27E-03
  POISSON| Poisson solver converged in 1 iteration. 
    24 Broy./Diag. 0.30E+00   12.2     0.00012307     -5672.2497272157 -1.99E-03
  POISSON|   iter        pres error      nabs error        E_hartree    delta E
  POISSON|      1        0.2554E-07      0.6220E-06    1992.9271767199  0.21E-03
  POISSON|      2        0.2383E-17      0.2554E-07    1992.9271765984 -0.12E-06
  POISSON| Poisson solver converged in 2 iterations.
    25 Broy./Diag. 0.30E+00   13.6     0.00014204     -5672.2492888767  4.38E-04
  POISSON|   iter        pres error      nabs error        E_hartree    delta E
  POISSON|      1        0.1040E-06      0.4312E-06    1992.9271621733 -0.14E-04
  POISSON|      2        0.4297E-18      0.1040E-06    1992.9271626678  0.49E-06
  POISSON| Poisson solver converged in 2 iterations.
    26 Broy./Diag. 0.30E+00   13.6     0.00028819     -5672.2487484226  5.40E-04
  POISSON|   iter        pres error      nabs error        E_hartree    delta E
  POISSON|      1        0.3958E-07      0.1222E-05    1992.9273493030  0.19E-03
  POISSON|      2        0.5763E-17      0.3958E-07    1992.9273491147 -0.19E-06
  POISSON| Poisson solver converged in 2 iterations.
    27 Broy./Diag. 0.30E+00   13.6     0.00020346     -5672.2478316932  9.17E-04
  POISSON|   iter        pres error      nabs error        E_hartree    delta E
  POISSON|      1        0.7686E-08      0.4529E-06    1992.9273860283  0.37E-04
  POISSON| Poisson solver converged in 1 iteration. 
    28 Broy./Diag. 0.30E+00   12.2     0.00008245     -5672.2493386901 -1.51E-03
  POISSON|   iter        pres error      nabs error        E_hartree    delta E
  POISSON|      1        0.1700E-07      0.5576E-06    1992.9274208908  0.35E-04
  POISSON|      2        0.2364E-17      0.1700E-07    1992.9274209716  0.81E-07
  POISSON| Poisson solver converged in 2 iterations.
    29 Broy./Diag. 0.30E+00   13.5     0.00006147     -5672.2495828589 -2.44E-04
  POISSON|   iter        pres error      nabs error        E_hartree    delta E
  POISSON|      1        0.4094E-08      0.3805E-06    1992.9273899515 -0.31E-04
  POISSON| Poisson solver converged in 1 iteration. 
    30 Broy./Diag. 0.30E+00   12.1     0.00004030     -5672.2492552347  3.28E-04
  POISSON|   iter        pres error      nabs error        E_hartree    delta E
  POISSON|      1        0.5546E-08      0.4557E-06    1992.9273393034 -0.51E-04
  POISSON| Poisson solver converged in 1 iteration. 
    31 Broy./Diag. 0.30E+00   12.1     0.00003554     -5672.2495055391 -2.50E-04
  POISSON|   iter        pres error      nabs error        E_hartree    delta E
  POISSON|      1        0.2047E-08      0.4492E-06    1992.9273125822 -0.27E-04
  POISSON| Poisson solver converged in 1 iteration. 
    32 Broy./Diag. 0.30E+00   12.2     0.00004506     -5672.2499735902 -4.68E-04
  POISSON|   iter        pres error      nabs error        E_hartree    delta E
  POISSON|      1        0.5831E-08      0.2056E-06    1992.9272934273 -0.19E-04
  POISSON| Poisson solver converged in 1 iteration. 
    33 Broy./Diag. 0.30E+00   12.1     0.00004161     -5672.2500295891 -5.60E-05
  POISSON|   iter        pres error      nabs error        E_hartree    delta E
  POISSON|      1        0.3793E-08      0.2646E-06    1992.9272919338 -0.15E-05
  POISSON| Poisson solver converged in 1 iteration. 
    34 Broy./Diag. 0.30E+00   12.1     0.00003058     -5672.2494976862  5.32E-04
  POISSON|   iter        pres error      nabs error        E_hartree    delta E
  POISSON|      1        0.4907E-08      0.1737E-06    1992.9273113809  0.19E-04
  POISSON| Poisson solver converged in 1 iteration. 
    35 Broy./Diag. 0.30E+00   12.1     0.00003208     -5672.2499081212 -4.10E-04
  POISSON|   iter        pres error      nabs error        E_hartree    delta E
  POISSON|      1        0.2511E-07      0.1114E-06    1992.9273049824 -0.64E-05
  POISSON|      2        0.1834E-17      0.2511E-07    1992.9273048630 -0.12E-06
  POISSON| Poisson solver converged in 2 iterations.
    36 Broy./Diag. 0.30E+00   13.5     0.00006769     -5672.2500370431 -1.29E-04
  POISSON|   iter        pres error      nabs error        E_hartree    delta E
  POISSON|      1        0.1207E-07      0.1650E-06    1992.9273552471  0.50E-04
  POISSON|      2        0.2113E-18      0.1207E-07    1992.9273553045  0.57E-07
  POISSON| Poisson solver converged in 2 iterations.
    37 Broy./Diag. 0.30E+00   13.6     0.00004895     -5672.2500145685  2.25E-05
  POISSON|   iter        pres error      nabs error        E_hartree    delta E
  POISSON|      1        0.1112E-09      0.1626E-06    1992.9273927261  0.37E-04
  POISSON| Poisson solver converged in 1 iteration. 
    38 Broy./Diag. 0.30E+00   12.1     0.00001616     -5672.2496654827  3.49E-04
  POISSON|   iter        pres error      nabs error        E_hartree    delta E
  POISSON|      1        0.5044E-08      0.1069E-06    1992.9274250437  0.32E-04
  POISSON| Poisson solver converged in 1 iteration. 
    39 Broy./Diag. 0.30E+00   12.1     0.00001691     -5672.2496729499 -7.47E-06
  POISSON|   iter        pres error      nabs error        E_hartree    delta E
  POISSON|      1        0.1327E-08      0.1236E-06    1992.9274670126  0.42E-04
  POISSON| Poisson solver converged in 1 iteration. 
    40 Broy./Diag. 0.30E+00   12.1     0.00001591     -5672.2497605708 -8.76E-05
  POISSON|   iter        pres error      nabs error        E_hartree    delta E
  POISSON|      1        0.2709E-08      0.9759E-07    1992.9274945699  0.28E-04
  POISSON| Poisson solver converged in 1 iteration. 
    41 Broy./Diag. 0.30E+00   12.2     0.00001031     -5672.2496337507  1.27E-04
  POISSON|   iter        pres error      nabs error        E_hartree    delta E
  POISSON|      1        0.5435E-09      0.9145E-07    1992.9275053670  0.11E-04
  POISSON| Poisson solver converged in 1 iteration. 
    42 Broy./Diag. 0.30E+00   12.1     0.00000824     -5672.2495630825  7.07E-05
  POISSON|   iter        pres error      nabs error        E_hartree    delta E
  POISSON|      1        0.6864E-09      0.8910E-07    1992.9275048914 -0.48E-06
  POISSON| Poisson solver converged in 1 iteration. 
    43 Broy./Diag. 0.30E+00   12.2     0.00000966     -5672.2496032612 -4.02E-05
  POISSON|   iter        pres error      nabs error        E_hartree    delta E
  POISSON|      1        0.2672E-08      0.6261E-07    1992.9275026636 -0.22E-05
  POISSON| Poisson solver converged in 1 iteration. 
    44 Broy./Diag. 0.30E+00   12.2     0.00001014     -5672.2497154128 -1.12E-04
  POISSON|   iter        pres error      nabs error        E_hartree    delta E
  POISSON|      1        0.1908E-08      0.6726E-07    1992.9274890391 -0.14E-04
  POISSON| Poisson solver converged in 1 iteration. 
    45 Broy./Diag. 0.30E+00   12.2     0.00000898     -5672.2496005244  1.15E-04
  POISSON|   iter        pres error      nabs error        E_hartree    delta E
  POISSON|      1        0.5719E-08      0.4745E-07    1992.9274898796  0.84E-06
  POISSON| Poisson solver converged in 1 iteration. 
    46 Broy./Diag. 0.30E+00   12.2     0.00001943     -5672.2496098411 -9.32E-06
  POISSON|   iter        pres error      nabs error        E_hartree    delta E
  POISSON|      1        0.5867E-08      0.6533E-07    1992.9274717666 -0.18E-04
  POISSON| Poisson solver converged in 1 iteration. 
    47 Broy./Diag. 0.30E+00   12.2     0.00001746     -5672.2496389332 -2.91E-05
  POISSON|   iter        pres error      nabs error        E_hartree    delta E
  POISSON|      1        0.5270E-09      0.5109E-07    1992.9274614135 -0.10E-04
  POISSON| Poisson solver converged in 1 iteration. 
    48 Broy./Diag. 0.30E+00   12.2     0.00000582     -5672.2497253483 -8.64E-05
  POISSON|   iter        pres error      nabs error        E_hartree    delta E
  POISSON|      1        0.4503E-09      0.3553E-07    1992.9274527705 -0.86E-05
  POISSON| Poisson solver converged in 1 iteration. 
    49 Broy./Diag. 0.30E+00   12.1     0.00000596     -5672.2496944022  3.09E-05
  POISSON|   iter        pres error      nabs error        E_hartree    delta E
  POISSON|      1        0.2353E-08      0.5479E-07    1992.9274448017 -0.80E-05
  POISSON| Poisson solver converged in 1 iteration. 
    50 Broy./Diag. 0.30E+00   12.1     0.00000593     -5672.2496643330  3.01E-05
  POISSON|   iter        pres error      nabs error        E_hartree    delta E
  POISSON|      1        0.2417E-09      0.3590E-07    1992.9274407238 -0.41E-05
  POISSON| Poisson solver converged in 1 iteration. 
    51 Broy./Diag. 0.30E+00   12.1     0.00000352     -5672.2497005109 -3.62E-05
  POISSON|   iter        pres error      nabs error        E_hartree    delta E
  POISSON|      1        0.1001E-08      0.3132E-07    1992.9274429877  0.23E-05
  POISSON| Poisson solver converged in 1 iteration. 
    52 Broy./Diag. 0.30E+00   12.1     0.00000284     -5672.2497005646 -5.37E-08
  POISSON|   iter        pres error      nabs error        E_hartree    delta E
  POISSON|      1        0.1021E-08      0.4478E-07    1992.9274502928  0.73E-05
  POISSON| Poisson solver converged in 1 iteration. 
    53 Broy./Diag. 0.30E+00   12.1     0.00000305     -5672.2496636507  3.69E-05
  POISSON|   iter        pres error      nabs error        E_hartree    delta E
  POISSON|      1        0.2016E-09      0.2055E-07    1992.9274551347  0.48E-05
  POISSON| Poisson solver converged in 1 iteration. 
    54 Broy./Diag. 0.30E+00   12.1     0.00000376     -5672.2496326456  3.10E-05
  POISSON|   iter        pres error      nabs error        E_hartree    delta E
  POISSON|      1        0.6766E-09      0.2524E-07    1992.9274637921  0.87E-05
  POISSON| Poisson solver converged in 1 iteration. 
    55 Broy./Diag. 0.30E+00   12.1     0.00000337     -5672.2496741720 -4.15E-05
  POISSON|   iter        pres error      nabs error        E_hartree    delta E
  POISSON|      1        0.1528E-08      0.1643E-07    1992.9274652433  0.15E-05
  POISSON| Poisson solver converged in 1 iteration. 
    56 Broy./Diag. 0.30E+00   12.1     0.00000414     -5672.2496523298  2.18E-05
  POISSON|   iter        pres error      nabs error        E_hartree    delta E
  POISSON|      1        0.7185E-09      0.1643E-07    1992.9274707779  0.55E-05
  POISSON| Poisson solver converged in 1 iteration. 
    57 Broy./Diag. 0.30E+00   12.2     0.00000386     -5672.2496345016  1.78E-05
  POISSON|   iter        pres error      nabs error        E_hartree    delta E
  POISSON|      1        0.7717E-09      0.1372E-07    1992.9274736204  0.28E-05
  POISSON| Poisson solver converged in 1 iteration. 
    58 Broy./Diag. 0.30E+00   12.1     0.00000232     -5672.2496256991  8.80E-06
  POISSON|   iter        pres error      nabs error        E_hartree    delta E
  POISSON|      1        0.6046E-09      0.1259E-07    1992.9274753724  0.18E-05
  POISSON| Poisson solver converged in 1 iteration. 
    59 Broy./Diag. 0.30E+00   12.2     0.00000187     -5672.2496436093 -1.79E-05
  POISSON|   iter        pres error      nabs error        E_hartree    delta E
  POISSON|      1        0.1457E-09      0.1043E-07    1992.9274766870  0.13E-05
  POISSON| Poisson solver converged in 1 iteration. 
    60 Broy./Diag. 0.30E+00   12.1     0.00000189     -5672.2496511065 -7.50E-06
  POISSON|   iter        pres error      nabs error        E_hartree    delta E
  POISSON|      1        0.4932E-09      0.1071E-07    1992.9274767489  0.62E-07
  POISSON| Poisson solver converged in 1 iteration. 
    61 Broy./Diag. 0.30E+00   12.1     0.00000099     -5672.2496404485  1.07E-05

  *** SCF run converged in    61 steps ***


  Electronic density on regular grids:      -2159.9999999992        0.0000000008
  Core density on regular grids:             2159.9999999995       -0.0000000005
  Total charge density on r-space grids:        0.0000000003
  Total charge density g-space grids:           0.0000000003

  Overlap energy of the core charge distribution:               0.00003272952762
  Self energy of the core charge distribution:              -9891.63555570741482
  Core Hamiltonian energy:                                   3202.32806063442149
  Hartree energy:                                            1992.92747674889370
  Electric enthalpy:                                         1992.92043129153762
  Exchange-correlation energy:                               -971.13650121752755
  Dispersion energy:                                           -4.69415587035426
  Electronic entropic energy:                                  -0.03195230893401
  Fermi energy:                                                -0.22643350372409

  Total energy:                                             -5672.24964044850822

 The electron density is written in cube file format to the file:

 cp2k-ELECTRON_DENSITY-1_0.cube

 !-----------------------------------------------------------------------------!
                     Mulliken Population Analysis

 #  Atom  Element  Kind  Atomic population                           Net charge
       1     Pt       1         10.064393                             -0.064393
       2     Pt       1         10.025206                             -0.025206
       3     Pt       1         10.049324                             -0.049324
       4     Pt       1         10.043135                             -0.043135
       5     Pt       1         10.026116                             -0.026116
       6     Pt       1         10.044267                             -0.044267
       7     Pt       1         10.058126                             -0.058126
       8     Pt       1         10.047241                             -0.047241
       9     Pt       1         10.060330                             -0.060330
      10     Pt       1         10.056634                             -0.056634
      11     Pt       1         10.026236                             -0.026236
      12     Pt       1         10.045404                             -0.045404
      13     Pt       1         10.037779                             -0.037779
      14     Pt       1         10.034045                             -0.034045
      15     Pt       1         10.045423                             -0.045423
      16     Pt       1         10.047655                             -0.047655
      17     Pt       1         10.035304                             -0.035304
      18     Pt       1         10.053456                             -0.053456
      19     Pt       1         10.043660                             -0.043660
      20     Pt       1         10.012629                             -0.012629
      21     Pt       1         10.036852                             -0.036852
      22     Pt       1         10.039698                             -0.039698
      23     Pt       1         10.043885                             -0.043885
      24     Pt       1         10.045668                             -0.045668
      25     Pt       1         10.067874                             -0.067874
      26     Pt       1         10.042400                             -0.042400
      27     Pt       1         10.060476                             -0.060476
      28     Pt       1         10.051720                             -0.051720
[...]
    191      1      Pt          0.00893976     0.00399518     0.01670808
    192      1      Pt         -0.01164598     0.00774317     0.00211997
    193      1      Pt         -0.00645283    -0.00973168     0.00136154
    194      1      Pt         -0.00132018     0.00775046    -0.01554783
    195      1      Pt         -0.00255262     0.03347598     0.00998613
    196      1      Pt          0.01826707     0.00518002     0.00783241
    197      1      Pt         -0.00045385     0.00408106    -0.00118586
    198      1      Pt          0.00635627    -0.01154600     0.01104387
    199      1      Pt          0.00927847     0.00378062     0.00056632
    200      1      Pt         -0.00911936     0.00604127    -0.00682258
    201      1      Pt          0.00713238    -0.00383196    -0.00113855
    202      1      Pt         -0.00330203    -0.00194832     0.00723066
    203      1      Pt         -0.01604024     0.00512402    -0.00681832
    204      1      Pt          0.00732692     0.01122003    -0.00120141
    205      1      Pt          0.01657286    -0.00324132    -0.00071955
    206      1      Pt          0.01073259    -0.00454076    -0.01123948
    207      1      Pt         -0.00334548    -0.00532119    -0.00326442
    208      1      Pt          0.01606885    -0.00793530     0.00599575
    209      1      Pt          0.00790454    -0.00624353    -0.00775041
    210      1      Pt         -0.01448242    -0.00736490     0.00353455
    211      1      Pt          0.00053560     0.00345686    -0.01005924
    212      1      Pt         -0.00671941    -0.00643164     0.00144076
    213      1      Pt         -0.00669878     0.01273814    -0.00920997
    214      1      Pt         -0.01886979     0.01562570     0.01210355
    215      1      Pt          0.00150191    -0.00080371     0.00884974
    216      1      Pt         -0.00075902     0.00795875     0.00615484
 SUM OF ATOMIC FORCES           0.00001373    -0.00000691     0.00005872     0.00006070

 -------------------------------------------------------------------------------
 -                                                                             -
 -                                DBCSR STATISTICS                             -
 -                                                                             -
 -------------------------------------------------------------------------------
 COUNTER                                    TOTAL       BLAS       SMM       ACC
 flops    20 x    12 x    20            447897600       0.0%    100.0%      0.0%
 flops    20 x    32 x    20          58525286400       0.0%    100.0%      0.0%
 flops    20 x    20 x   204         240959577600       0.0%    100.0%      0.0%
 flops    20 x    20 x   224         264583065600       0.0%    100.0%      0.0%
 flops    20 x    20 x   192        1360712908800       0.0%    100.0%      0.0%
 flops inhomo. stacks                           0       0.0%      0.0%      0.0%
 flops total                         1.925229E+12       0.0%    100.0%      0.0%
 flops max/rank                     61.786829E+09       0.0%    100.0%      0.0%
 matmuls inhomo. stacks                         0       0.0%      0.0%      0.0%
 matmuls total                           14144544       0.0%    100.0%      0.0%
 number of processed stacks                 18560       0.0%    100.0%      0.0%
 average stack size                                     0.0     762.1       0.0
 marketing flops                     2.740013E+12
 -------------------------------------------------------------------------------
 # multiplications                             64
 max memory usage/rank               1.796211E+09
 # max total images/rank                        2
 # max 3D layers                                1
 # MPI messages exchanged                   26624
 MPI messages size (bytes):
  total size                        35.609932E+09
  min size                         829.440000E+03
  max size                           4.665600E+06
  average size                       1.337512E+06
 MPI breakdown and total messages size (bytes):
             size <=      128                   0                        0
       128 < size <=     8192                   0                        0
      8192 < size <=    32768                   0                        0
     32768 < size <=   131072                   0                        0
    131072 < size <=  4194304               26400              34564838400
   4194304 < size <= 16777216                 224               1045094400
  16777216 < size                               0                        0
 -------------------------------------------------------------------------------

 *** WARNING in dbcsr_mm.F:290 :: Using a non-square number of MPI ranks ***
 *** might lead to poor performance. Used ranks: 32 Suggested: 36 64     ***

 -------------------------------------------------------------------------------
 -                                                                             -
 -                      DBCSR MESSAGE PASSING PERFORMANCE                      -
 -                                                                             -
 -------------------------------------------------------------------------------
 ROUTINE             CALLS      AVE VOLUME [Bytes]
 MP_Bcast                6                     12.
 MP_Allreduce          471                      9.
 MP_Alltoall          1773                1274992.
 MP_ISend             2048                 578838.
 MP_IRecv             2048                 561858.
 -------------------------------------------------------------------------------

 -------------------------------------------------------------------------------
 -                                                                             -
 -                                DBM STATISTICS                               -
 -                                                                             -
 -------------------------------------------------------------------------------
    M  x    N  x    K                                          COUNT     PERCENT
 -------------------------------------------------------------------------------

 -------------------------------------------------------------------------------
 -                                                                             -
 -                                GRID STATISTICS                              -
 -                                                                             -
 -------------------------------------------------------------------------------
 LP    KERNEL             BACKEND                              COUNT     PERCENT
 4     collocate general  REF                               21118564      49.97%
 4     integrate general  REF                               20777942      49.16%
 5     integrate general  REF                                 340622       0.81%
 0     collocate general  REF                                  13824       0.03%
 0     integrate general  REF                                   6912       0.02%
 1     integrate general  REF                                   6912       0.02%
 -------------------------------------------------------------------------------

 MEMORY| Estimated peak process memory [MiB]                                2103

 -------------------------------------------------------------------------------
 ----                             MULTIGRID INFO                            ----
 -------------------------------------------------------------------------------
 count for grid        1:          17574          cutoff [a.u.]          200.00
 count for grid        2:         177687          cutoff [a.u.]           66.67
 count for grid        3:         109688          cutoff [a.u.]           22.22
 count for grid        4:         155326          cutoff [a.u.]            7.41
 total gridlevel count  :         460275

 -------------------------------------------------------------------------------
 -                                                                             -
 -                         MESSAGE PASSING PERFORMANCE                         -
 -                                                                             -
 -------------------------------------------------------------------------------

 ROUTINE             CALLS      AVE VOLUME [Bytes]
 MP_Group                4
 MP_Bcast             1766                 164901.
 MP_Allreduce         1572                   1608.
 MP_Sync                67
 MP_Alltoall          3017               49316455.
 MP_SendRecv           124                  14994.
 MP_ISendRecv         7688                 214800.
 MP_Wait             18644
 MP_comm_split           1
 MP_ISend             9824                 715239.
 MP_IRecv             9824                 715239.
 MP_Recv               192                1105920.
 MP_Write_All            3                4213860.
 -------------------------------------------------------------------------------


 -------------------------------------------------------------------------------
 -                                                                             -
 -                           R E F E R E N C E S                               -
 -                                                                             -
 -------------------------------------------------------------------------------
 
 CP2K version 2022.1, the CP2K developers group (2022).
 CP2K is freely available from https://www.cp2k.org/ .

 Kuehne,Thomas D.; Iannuzzi,Marcella; Del Ben,Mauro;
 Rybkin,Vladimir V.; Seewald,Patrick; Stein,Frederick; Laino,Teodoro;
 Khaliullin,Rustam Z.; Schuett,Ole; Schiffmann,Florian; Golze,Dorothea;
 Wilhelm,Jan; Chulkov,Sergey; Bani-Hashemian,Mohammad Hossein;
 Weber,Valery; Borstnik,Urban; Taillefumier,Mathieu;
 Jakobovits,Alice Shoshana; Lazzaro,Alfio; Pabst,Hans; Mueller,Tiziano;
 Schade,Robert; Guidon,Manuel; Andermatt,Samuel; Holmberg,Nico;
 Schenter,Gregory K.; Hehn,Anna; Bussy,Augustin; Belleflamme,Fabian;
 Tabacchi,Gloria; Gloess,Andreas; Lass,Michael; Bethune,Iain;
 Mundy,Christopher J.; Plessl,Christian; Watkins,Matt;
 VandeVondele,Joost; Krack,Matthias; Hutter,Juerg. 
 The Journal of Chemical Physics, 152 (19), (2020). 
 CP2K: An electronic structure and molecular dynamics software package -
 Quickstep: Efficient and accurate electronic structure calculations.
 https://doi.org/10.1063/5.0007045

 Goerigk, Lars; Hansen, Andreas; Bauer, Christoph; Ehrlich, Stephan;
 Najibi, Asim; Grimme, Stefan. , 19 (48), (2017). 
 A look at the density functional theory zoo with the advanced GMTKN55 database
 for general main group thermochemistry, kinetics and noncovalent interactions.
 https://doi.org/10.1039/C7CP04913G

 Bani-Hashemian, MH; Bruck, S; Luisier, M; VandeVondele, J. 
 JOURNAL OF CHEMICAL PHYSICS, 144 (4), 044113 (2016). 
 A generalized Poisson solver for first-principles device simulations.
 https://doi.org/10.1063/1.4940796

 Schuett, Ole; Messmer, Peter; Hutter, Juerg; VandeVondele, Joost. 
 Electronic Structure Calculations on Graphics Processing Units, John
 Wiley & Sons, Ltd, 173-190 (2016). 
 GPU-Accelerated Sparse Matrix-Matrix Multiplication for
 Linear Scaling Density Functional Theory.
 https://doi.org/10.1002/9781118670712.ch8

 Heinecke, A; Henry, G; Hutchinson, M; Pabst, H. 
 Proceedings of Intl. Supercomputing Conference, 981-991 (2016). 
 LIBXSMM: Accelerating Small Matrix Multiplications
 by Runtime Code Generation.
 https://doi.org/10.1109/SC.2016.83

 Borstnik, U; VandeVondele, J; Weber, V; Hutter, J. 
 PARALLEL COMPUTING, 40 (5-6), 47-58 (2014). 
 Sparse matrix multiplication: The distributed block-compressed sparse
 row library.
 https://doi.org/10.1016/j.parco.2014.03.012

 Hutter, J; Iannuzzi, M; Schiffmann, F; VandeVondele, J. 
 WIREs Comput Mol Sci., 4 (1), 15-25 (2014). 
 CP2K: atomistic simulations of condensed matter systems.
 https://doi.org/10.1002/wcms.1159

 Marek, A; Blum, V; Johanni, R; Havu, V; Lang, B; Auckenthaler, T;
 Heinecke, A; Bungartz, H; Lederer, H. 
 Journal of Physics: Condensed Matter, 26 (21), (2014). 
 The ELPA library: scalable parallel eigenvalue solutions for
 electronic structure
 theory and computational science.
 https://doi.org/10.1088/0953-8984/26/21/213201

 Grimme, S; Ehrlich, S; Goerigk, L. 
 JOURNAL OF COMPUTATIONAL CHEMISTRY, 32, 1456 (2011). 
 Effect of the damping function in dispersion corrected density functional theory.
 https://doi.org/10.1002/jcc.21759

 Grimme, S; Antony, J; Ehrlich, S; Krieg, H. 
 JOURNAL OF CHEMICAL PHYSICS, 132 (15), 154104 (2010). 
 A consistent and accurate ab initio parametrization of density
 functional dispersion correction (DFT-D) for the 94 elements H-Pu.
 https://doi.org/10.1063/1.3382344

 VandeVondele, J; Hutter, J. 
 JOURNAL OF CHEMICAL PHYSICS, 127 (11), 114105 (2007). 
 Gaussian basis sets for accurate calculations on molecular systems in
 gas and condensed phases.
 https://doi.org/10.1063/1.2770708

 Krack, M. 
 THEORETICAL CHEMISTRY ACCOUNTS, 114 (1-3), 145-152 (2005). 
 Pseudopotentials for H to Kr optimized for gradient-corrected
 exchange-correlation functionals.
 https://doi.org/10.1007/s00214-005-0655-y

 VandeVondele, J; Krack, M; Mohamed, F; Parrinello, M; Chassaing, T;
 Hutter, J. COMPUTER PHYSICS COMMUNICATIONS, 167 (2), 103-128 (2005). 
 QUICKSTEP: Fast and accurate density functional calculations using a
 mixed Gaussian and plane waves approach.
 https://doi.org/10.1016/j.cpc.2004.12.014

 Frigo, M; Johnson, SG. 
 PROCEEDINGS OF THE IEEE, 93 (2), 216-231 (2005). 
 The design and implementation of FFTW3.
 https://doi.org/10.1109/JPROC.2004.840301

 Hartwigsen, C; Goedecker, S; Hutter, J. 
 PHYSICAL REVIEW B, 58 (7), 3641-3662 (1998). 
 Relativistic separable dual-space Gaussian pseudopotentials from H to Rn.
 https://doi.org/10.1103/PhysRevB.58.3641

 Lippert, G; Hutter, J; Parrinello, M. 
 MOLECULAR PHYSICS, 92 (3), 477-487 (1997). 
 A hybrid Gaussian and plane wave density functional scheme.
 https://doi.org/10.1080/002689797170220

 Perdew, JP; Burke, K; Ernzerhof, M. 
 PHYSICAL REVIEW LETTERS, 77 (18), 3865-3868 (1996). 
 Generalized gradient approximation made simple.
 https://doi.org/10.1103/PhysRevLett.77.3865

 Goedecker, S; Teter, M; Hutter, J. 
 PHYSICAL REVIEW B, 54 (3), 1703-1710 (1996). 
 Separable dual-space Gaussian pseudopotentials.
 https://doi.org/10.1103/PhysRevB.54.1703


 -------------------------------------------------------------------------------
 -                                                                             -
 -                                T I M I N G                                  -
 -                                                                             -
 -------------------------------------------------------------------------------
 SUBROUTINE                       CALLS  ASD         SELF TIME        TOTAL TIME
                                MAXIMUM       AVERAGE  MAXIMUM  AVERAGE  MAXIMUM
 CP2K                                 1  1.0    0.018    0.034  799.859  799.861
 qs_forces                            1  2.0    0.001    0.001  799.455  799.457
 qs_energies                          1  3.0    0.000    0.000  786.683  786.686
 scf_env_do_scf                       1  4.0    0.000    0.001  778.387  778.475
 scf_env_do_scf_inner_loop           61  5.0    0.003    0.006  778.385  778.473
 rebuild_ks_matrix                   62  7.0    0.000    0.000  496.098  496.125
 qs_ks_build_kohn_sham_matrix        62  8.0    0.010    0.011  496.098  496.124
 qs_ks_update_qs_env                 61  6.0    0.000    0.001  487.771  487.797
 pw_transfer                       2878 12.1    0.223    0.293  278.678  281.329
 fft_wrap_pw1pw2                   2878 13.1    0.031    0.036  278.455  281.036
 fft_wrap_pw1pw2_200               2506 14.4   23.402   27.014  275.684  278.306
 pw_poisson_solve                    62  9.0    0.019    0.026  237.966  238.035
 implicit_poisson_solver_mixed_      62 10.0    6.354    6.866  223.747  223.878
 fft3d_ps                          2878 15.1  118.097  127.288  207.931  211.161
 qs_rho_update_rho_low               62  6.0    0.001    0.001  187.161  187.174
 calculate_rho_elec                  62  7.0    0.339    0.364  187.160  187.174
 sum_up_and_integrate                62  9.0    0.965    1.046  176.377  176.416
 integrate_v_rspace                  62 10.0    0.002    0.002  175.412  175.529
 grid_collocate_task_list            62  8.0   83.141  161.634   83.141  161.634
 derive_fft                         302 12.2    0.022    0.024  157.279  158.587
 grid_integrate_task_list            62 11.0   77.154  150.524   77.154  150.524
 rs_pw_transfer                     500 10.5    0.006    0.008  103.272  129.296
 density_rs2pw                       62  8.0    0.004    0.005  102.308  128.602
 apply_P_operator                   240 11.2    2.248    2.602  127.365  128.247
 mp_waitany                        9824 12.4   85.899  112.013   85.899  112.013
 rs_pw_transfer_RS2PW_200            64 10.0    3.601    4.176   84.415  110.459
 mp_alltoall_d11v                   884 10.3   75.418   99.506   75.418   99.506
 rs_gather_matrices                  62 11.0    0.235    0.279   74.279   98.389
 qs_scf_new_mos                      61  6.0    0.006    0.010   76.866   76.988
 qs_vxc_create                       62  9.0    0.002    0.003   73.509   74.376
 xc_vxc_pw_create                    62 10.0    1.659    2.091   73.507   74.374
 eigensolver                         61  7.0    0.005    0.008   69.221   69.307
 x_to_yz                           1802 16.3   39.527   46.168   61.857   64.528
 mp_alltoall_z22v                  2878 17.1   39.048   59.238   39.048   59.238
 xc_pw_derive                       372 12.0    0.006    0.007   49.695   52.419
 apply_poisson_operator_fft          62 11.0    0.001    0.001   47.273   47.529
 cp_fm_diag_elpa                     62  8.0    0.001    0.001   43.819   43.944
 cp_fm_diag_elpa_base                62  9.0   42.899   43.024   43.713   43.775
 yz_to_x                           1076 15.8   11.189   11.855   27.908   39.637
 xc_rho_set_and_dset_create          62 11.0    0.704    0.874   38.324   39.230
 apply_inv_laplace_operator_fft     153 11.6    1.264    1.347   34.026   35.040
 xc_pw_divergence                    62 11.0    0.003    0.004   32.547   34.379
 pw_scatter_p                      1802 15.3   30.536   34.256   30.536   34.256
 ps_implicit_compute_veps            62 11.0    0.747    0.884   32.914   33.666
 gspace_mixing                       60  6.0    0.328    0.350   29.145   29.150
 pw_derive                         1278 13.1   24.459   25.639   24.459   25.639
 cp_fm_triangular_multiply          183  8.0   24.661   24.843   24.661   24.843
 potential_pw2rs                     62 11.0    0.050    0.056   23.966   24.074
 ps_implicit_compute_error_fft       89 11.0    1.649    1.768   22.127   23.660
 broyden_mixing                      60  7.0   21.241   21.653   21.797   21.873
 pw_gather_p                       1076 14.8   16.275   16.977   16.275   16.977
 -------------------------------------------------------------------------------

 The number of warnings for this run is : 1
 
 -------------------------------------------------------------------------------
  **** **** ******  **  PROGRAM ENDED AT                 2023-12-03 07:28:25.952
 ***** ** ***  *** **   PROGRAM RAN ON                                     cu042
 **    ****   ******    PROGRAM RAN BY                                     jxzhu
 ***** **    ** ** **   PROGRAM PROCESS ID                                 58952
  **** **  *******  **  PROGRAM STOPPED IN /public/home/jxzhu/tmp_calc/04c0855f9
                                           8753fac23fde4df51ba20f3741a9e9a/calc/
                                           task.002.000024
