 DBCSR| CPU Multiplication driver                                           XSMM
 DBCSR| Multrec recursion limit                                              512
 DBCSR| Multiplication stack size                                           1000
 DBCSR| Maximum elements for images                                    UNLIMITED
 DBCSR| Multiplicative factor virtual images                                   1
 DBCSR| Use multiplication densification                                       T
 DBCSR| Multiplication size stacks                                             3
 DBCSR| Number of 3D layers                                               SINGLE
 DBCSR| Use MPI memory allocation                                              T
 DBCSR| Use RMA algorithm                                                      F
 DBCSR| Use Communication thread                                               T
 DBCSR| Communication thread load                                             87


  **** **** ******  **  PROGRAM STARTED AT               2024-11-01 21:50:08.885
 ***** ** ***  *** **   PROGRAM STARTED ON                               c53-012
 **    ****   ******    PROGRAM STARTED BY                                 jxzhu
 ***** **    ** ** **   PROGRAM PROCESS ID                                255142
  **** **  *******  **  PROGRAM STARTED IN /data/jxzhu/nnp/dp_workdir/d1f764b96e
                                           9a01b62c3e35b0c4f5198f3ba3ed59/calc.0
                                           01/task.000.000001

 CP2K| version string:                                          CP2K version 7.1
 CP2K| source code revision number:                                  git:e635599
 CP2K| cp2kflags: libint fftw3 libxc elpa parallel mpi3 scalapack xsmm spglib   
 CP2K| is freely available from                            https://www.cp2k.org/
 CP2K| Program compiled at                           Mon Mar 8 20:53:19 CST 2021
 CP2K| Program compiled on                                                 mgt01
 CP2K| Program compiled for                                                local
 CP2K| Data directory path                                    /data/jxzhu/basis/
 CP2K| Input file name                                                 input.inp

 GLOBAL| Force Environment number                                              1
 GLOBAL| Basis set file name                                        BASIS_MOLOPT
 GLOBAL| Potential file name                                      GTH_POTENTIALS
 GLOBAL| MM Potential file name                                     MM_POTENTIAL
 GLOBAL| Coordinate file name                                          coord.xyz
 GLOBAL| Method name                                                        CP2K
 GLOBAL| Project name                                                       cp2k
 GLOBAL| Preferred FFT library                                             FFTW3
 GLOBAL| Preferred diagonalization lib.                                     ELPA
 GLOBAL| Run type                                                   ENERGY_FORCE
 GLOBAL| All-to-all communication in single precision                          F
 GLOBAL| FFTs using library dependent lengths                                  F
 GLOBAL| Global print level                                               MEDIUM
 GLOBAL| MPI I/O enabled                                                       T
 GLOBAL| Total number of message passing processes                            32
 GLOBAL| Number of threads for this process                                    1
 GLOBAL| This output is from process                                           0
 GLOBAL| CPU model name                Intel(R) Xeon(R) Gold 6226R CPU @ 2.90GHz
 GLOBAL| CPUID                                                              1003
 GLOBAL| Compiled for CPUID                                                 1002
 HINT in environment.F:814 The compiler target flags (x86_avx2) used to build
   this binary cannot exploit all extensions of this CPU model (x86_avx512).
   Consider compiler target flags as part of FCFLAGS and CFLAGS (ARCH file).

 MEMORY| system memory details [Kb]
 MEMORY|                        rank 0           min           max       average
 MEMORY| MemTotal            196472820     196472820     196472820     196472820
 MEMORY| MemFree             182936524     182936524     182936772     182936570
 MEMORY| Buffers                  2196          2196          2196          2196
 MEMORY| Cached                 797864        797864        797864        797864
 MEMORY| Slab                   428936        428936        428936        428936
 MEMORY| SReclaimable           138760        138760        138760        138760
 MEMORY| MemLikelyFree       183875344     183875344     183875592     183875390


 *** Fundamental physical constants (SI units) ***

 *** Literature: B. J. Mohr and B. N. Taylor,
 ***             CODATA recommended values of the fundamental physical
 ***             constants: 2006, Web Version 5.1
 ***             http://physics.nist.gov/constants

 Speed of light in vacuum [m/s]                             2.99792458000000E+08
 Magnetic constant or permeability of vacuum [N/A**2]       1.25663706143592E-06
 Electric constant or permittivity of vacuum [F/m]          8.85418781762039E-12
 Planck constant (h) [J*s]                                  6.62606896000000E-34
 Planck constant (h-bar) [J*s]                              1.05457162825177E-34
 Elementary charge [C]                                      1.60217648700000E-19
 Electron mass [kg]                                         9.10938215000000E-31
 Electron g factor [ ]                                     -2.00231930436220E+00
 Proton mass [kg]                                           1.67262163700000E-27
 Fine-structure constant                                    7.29735253760000E-03
 Rydberg constant [1/m]                                     1.09737315685270E+07
 Avogadro constant [1/mol]                                  6.02214179000000E+23
 Boltzmann constant [J/K]                                   1.38065040000000E-23
 Atomic mass unit [kg]                                      1.66053878200000E-27
 Bohr radius [m]                                            5.29177208590000E-11

 *** Conversion factors ***

 [u] -> [a.u.]                                              1.82288848426455E+03
 [Angstrom] -> [Bohr] = [a.u.]                              1.88972613288564E+00
 [a.u.] = [Bohr] -> [Angstrom]                              5.29177208590000E-01
 [a.u.] -> [s]                                              2.41888432650478E-17
 [a.u.] -> [fs]                                             2.41888432650478E-02
 [a.u.] -> [J]                                              4.35974393937059E-18
 [a.u.] -> [N]                                              8.23872205491840E-08
 [a.u.] -> [K]                                              3.15774647902944E+05
 [a.u.] -> [kJ/mol]                                         2.62549961709828E+03
 [a.u.] -> [kcal/mol]                                       6.27509468713739E+02
 [a.u.] -> [Pa]                                             2.94210107994716E+13
 [a.u.] -> [bar]                                            2.94210107994716E+08
 [a.u.] -> [atm]                                            2.90362800883016E+08
 [a.u.] -> [eV]                                             2.72113838565563E+01
 [a.u.] -> [Hz]                                             6.57968392072181E+15
 [a.u.] -> [1/cm] (wave numbers)                            2.19474631370540E+05
 [a.u./Bohr**2] -> [1/cm]                                   5.14048714338585E+03
 

 CELL_TOP| Volume [angstrom^3]:                                         4542.849
 CELL_TOP| Vector a [angstrom    11.246     0.000     0.000    |a| =      11.246
 CELL_TOP| Vector b [angstrom     0.000     9.739     0.000    |b| =       9.739
 CELL_TOP| Vector c [angstrom     0.000     0.000    41.478    |c| =      41.478
 CELL_TOP| Angle (b,c), alpha [degree]:                                   90.000
 CELL_TOP| Angle (a,c), beta  [degree]:                                   90.000
 CELL_TOP| Angle (a,b), gamma [degree]:                                   90.000
 CELL_TOP| Numerically orthorhombic:                                         YES

 GENERATE|  Preliminary Number of Bonds generated:                             0
 GENERATE|  Achieved consistency in connectivity generation.

 CELL| Volume [angstrom^3]:                                             4542.849
 CELL| Vector a [angstrom]:      11.246     0.000     0.000    |a| =      11.246
 CELL| Vector b [angstrom]:       0.000     9.739     0.000    |b| =       9.739
 CELL| Vector c [angstrom]:       0.000     0.000    41.478    |c| =      41.478
 CELL| Angle (b,c), alpha [degree]:                                       90.000
 CELL| Angle (a,c), beta  [degree]:                                       90.000
 CELL| Angle (a,b), gamma [degree]:                                       90.000
 CELL| Numerically orthorhombic:                                             YES

 CELL_REF| Volume [angstrom^3]:                                         4542.849
 CELL_REF| Vector a [angstrom    11.246     0.000     0.000    |a| =      11.246
 CELL_REF| Vector b [angstrom     0.000     9.739     0.000    |b| =       9.739
 CELL_REF| Vector c [angstrom     0.000     0.000    41.478    |c| =      41.478
 CELL_REF| Angle (b,c), alpha [degree]:                                   90.000
 CELL_REF| Angle (a,c), beta  [degree]:                                   90.000
 CELL_REF| Angle (a,b), gamma [degree]:                                   90.000
 CELL_REF| Numerically orthorhombic:                                         YES

 *******************************************************************************
 *******************************************************************************
 **                                                                           **
 **     #####                         ##              ##                      **
 **    ##   ##            ##          ##              ##                      **
 **   ##     ##                       ##            ######                    **
 **   ##     ##  ##   ##  ##   #####  ##  ##   ####   ##    #####    #####    **
 **   ##     ##  ##   ##  ##  ##      ## ##   ##      ##   ##   ##  ##   ##   **
 **   ##  ## ##  ##   ##  ##  ##      ####     ###    ##   ######   ######    **
 **    ##  ###   ##   ##  ##  ##      ## ##      ##   ##   ##       ##        **
 **     #######   #####   ##   #####  ##  ##  ####    ##    #####   ##        **
 **           ##                                                    ##        **
 **                                                                           **
 **                                                ... make the atoms dance   **
 **                                                                           **
 **            Copyright (C) by CP2K developers group (2000 - 2019)           **
 **                                                                           **
 *******************************************************************************

 DFT| Spin restricted Kohn-Sham (RKS) calculation                            RKS
 DFT| Multiplicity                                                             1
 DFT| Number of spin states                                                    1
 DFT| Charge                                                                   0
 DFT| Self-interaction correction (SIC)                                       NO
 DFT| Cutoffs: density                                              1.000000E-10
 DFT|          gradient                                             1.000000E-10
 DFT|          tau                                                  1.000000E-10
 DFT|          cutoff_smoothing_range                               0.000000E+00
 DFT| XC density smoothing                                                  NONE
 DFT| XC derivatives                                                          PW
 FUNCTIONAL| ROUTINE=NEW
 FUNCTIONAL| PBE:
 FUNCTIONAL| J.P.Perdew, K.Burke, M.Ernzerhof, Phys. Rev. Letter, vol. 77, n 18,
 FUNCTIONAL|  pp. 3865-3868, (1996){spin unpolarized}                           
 vdW POTENTIAL|                                                   Pair Potential
 vdW POTENTIAL|          DFT-D3 (Version 3.1)
 vdW POTENTIAL|          Potential Form: S. Grimme et al, JCP 132: 154104 (2010)
 vdW POTENTIAL|          Zero Damping
 vdW POTENTIAL|          Cutoff Radius [Bohr]:                             20.00
 vdW POTENTIAL|          s6 Scaling Factor:                               1.0000
 vdW POTENTIAL|          sr6 Scaling Factor:                              1.2170
 vdW POTENTIAL|          s8 Scaling Factor:                               0.7220
 vdW POTENTIAL|          Cutoff for CN calculation:                   0.1000E-05

 QS| Method:                                                                 GPW
 QS| Density plane wave grid type                        NON-SPHERICAL FULLSPACE
 QS| Number of grid levels:                                                    4
 QS| Density cutoff [a.u.]:                                                200.0
 QS| Multi grid cutoff [a.u.]: 1) grid level                               200.0
 QS|                           2) grid level                                66.7
 QS|                           3) grid level                                22.2
 QS|                           4) grid level                                 7.4
 QS| Grid level progression factor:                                          3.0
 QS| Relative density cutoff [a.u.]:                                        20.0
 QS| Consistent realspace mapping and integration 
 QS| Interaction thresholds: eps_pgf_orb:                                3.2E-07
 QS|                         eps_filter_matrix:                          0.0E+00
 QS|                         eps_core_charge:                            1.0E-15
 QS|                         eps_rho_gspace:                             1.0E-13
 QS|                         eps_rho_rspace:                             1.0E-13
 QS|                         eps_gvg_rspace:                             3.2E-07
 QS|                         eps_ppl:                                    1.0E-02
 QS|                         eps_ppnl:                                   3.2E-09


 ATOMIC KIND INFORMATION

  1. Atomic kind: Pt                                    Number of atoms:      96

     Orbital Basis Set                      DZVP-A5-Q10-323-MOL-T1-DERIVED_SET-1

       Number of orbital shell sets:                                           1
       Number of orbital shells:                                               6
       Number of primitive Cartesian functions:                                5
       Number of Cartesian basis functions:                                   23
       Number of spherical basis functions:                                   20
       Norm type:                                                              2

       Normalised Cartesian orbitals:

                        Set   Shell   Orbital            Exponent    Coefficient

                          1       1    2s                2.521825       0.177473
                                                         1.453920      -0.063399
                                                         0.614053      -0.407089
                                                         0.232656       0.262254
                                                         0.074788       0.047371

                          1       2    3s                2.521825      -0.049056
                                                         1.453920       0.044904
                                                         0.614053      -0.009756
                                                         0.232656      -0.144709
                                                         0.074788       0.144085

                          1       3    3px               2.521825      -0.317572
                                                         1.453920       0.534826
                                                         0.614053      -0.489458
                                                         0.232656       0.245631
                                                         0.074788       0.018221
                          1       3    3py               2.521825      -0.317572
                                                         1.453920       0.534826
                                                         0.614053      -0.489458
                                                         0.232656       0.245631
                                                         0.074788       0.018221
                          1       3    3pz               2.521825      -0.317572
                                                         1.453920       0.534826
                                                         0.614053      -0.489458
                                                         0.232656       0.245631
                                                         0.074788       0.018221

                          1       4    4dx2              2.521825       3.008522
                                                         1.453920      -1.224251
                                                         0.614053       0.225691
                                                         0.232656       0.125144
                                                         0.074788      -0.015348
                          1       4    4dxy              2.521825       5.210912
                                                         1.453920      -2.120465
                                                         0.614053       0.390909
                                                         0.232656       0.216756
                                                         0.074788      -0.026584
                          1       4    4dxz              2.521825       5.210912
                                                         1.453920      -2.120465
                                                         0.614053       0.390909
                                                         0.232656       0.216756
                                                         0.074788      -0.026584
                          1       4    4dy2              2.521825       3.008522
                                                         1.453920      -1.224251
                                                         0.614053       0.225691
                                                         0.232656       0.125144
                                                         0.074788      -0.015348
                          1       4    4dyz              2.521825       5.210912
                                                         1.453920      -2.120465
                                                         0.614053       0.390909
                                                         0.232656       0.216756
                                                         0.074788      -0.026584
                          1       4    4dz2              2.521825       3.008522
                                                         1.453920      -1.224251
                                                         0.614053       0.225691
                                                         0.232656       0.125144
                                                         0.074788      -0.015348

                          1       5    5dx2              2.521825       0.698026
                                                         1.453920      -1.511486
                                                         0.614053      -0.335394
                                                         0.232656      -0.025564
                                                         0.074788      -0.002699
                          1       5    5dxy              2.521825       1.209017
                                                         1.453920      -2.617970
                                                         0.614053      -0.580920
                                                         0.232656      -0.044277
                                                         0.074788      -0.004674
                          1       5    5dxz              2.521825       1.209017
                                                         1.453920      -2.617970
                                                         0.614053      -0.580920
                                                         0.232656      -0.044277
                                                         0.074788      -0.004674
                          1       5    5dy2              2.521825       0.698026
                                                         1.453920      -1.511486
                                                         0.614053      -0.335394
                                                         0.232656      -0.025564
                                                         0.074788      -0.002699
                          1       5    5dyz              2.521825       1.209017
                                                         1.453920      -2.617970
                                                         0.614053      -0.580920
                                                         0.232656      -0.044277
                                                         0.074788      -0.004674
                          1       5    5dz2              2.521825       0.698026
                                                         1.453920      -1.511486
                                                         0.614053      -0.335394
                                                         0.232656      -0.025564
                                                         0.074788      -0.002699

                          1       6    6dx2              2.521825       0.831079
                                                         1.453920      -0.709226
                                                         0.614053      -0.137351
                                                         0.232656       0.068642
                                                         0.074788       0.011745
                          1       6    6dxy              2.521825       1.439472
                                                         1.453920      -1.228415
                                                         0.614053      -0.237899
                                                         0.232656       0.118891
                                                         0.074788       0.020343
                          1       6    6dxz              2.521825       1.439472
                                                         1.453920      -1.228415
                                                         0.614053      -0.237899
                                                         0.232656       0.118891
                                                         0.074788       0.020343
                          1       6    6dy2              2.521825       0.831079
                                                         1.453920      -0.709226
                                                         0.614053      -0.137351
                                                         0.232656       0.068642
                                                         0.074788       0.011745
                          1       6    6dyz              2.521825       1.439472
                                                         1.453920      -1.228415
                                                         0.614053      -0.237899
                                                         0.232656       0.118891
                                                         0.074788       0.020343
                          1       6    6dz2              2.521825       0.831079
                                                         1.453920      -0.709226
                                                         0.614053      -0.137351
                                                         0.232656       0.068642
                                                         0.074788       0.011745

     GTH Potential information for                                   GTH-PBE-q10

       Description:                       Goedecker-Teter-Hutter pseudopotential
                                           Goedecker et al., PRB 54, 1703 (1996)
                                          Hartwigsen et al., PRB 58, 3641 (1998)
                                                      Krack, TCA 114, 145 (2005)

       Gaussian exponent of the core charge distribution:               1.317676
       Electronic configuration (s p d ...):                           1   0   9

       Parameters of the local part of the GTH pseudopotential:

                          rloc        C1          C2          C3          C4
                        0.616000   11.313635

       Parameters of the non-local part of the GTH pseudopotential:

                   l      r(l)      h(i,j,l)

                   0    0.550904    4.733491   -1.784594
                                   -1.784594    2.303901
                   1    0.674138    2.534798   -1.778066
                                   -1.778066    2.103836
                   2    0.457392   -7.264011    2.558665
                                    2.558665   -2.901253

  2. Atomic kind: O                                     Number of atoms:       1

     Orbital Basis Set                                        DZVP-MOLOPT-SR-GTH

       Number of orbital shell sets:                                           1
       Number of orbital shells:                                               5
       Number of primitive Cartesian functions:                                5
       Number of Cartesian basis functions:                                   14
       Number of spherical basis functions:                                   13
       Norm type:                                                              2

       Normalised Cartesian orbitals:

                        Set   Shell   Orbital            Exponent    Coefficient

                          1       1    2s               10.389228       0.396646
                                                         3.849621       0.208811
                                                         1.388401      -0.301641
                                                         0.496955      -0.274061
                                                         0.162492      -0.033677

                          1       2    3s               10.389228       0.303673
                                                         3.849621       0.240943
                                                         1.388401      -0.313066
                                                         0.496955      -0.043055
                                                         0.162492       0.213991

                          1       3    3px              10.389228      -1.530415
                                                         3.849621      -1.371928
                                                         1.388401      -0.761951
                                                         0.496955      -0.253695
                                                         0.162492      -0.035541
                          1       3    3py              10.389228      -1.530415
                                                         3.849621      -1.371928
                                                         1.388401      -0.761951
                                                         0.496955      -0.253695
                                                         0.162492      -0.035541
                          1       3    3pz              10.389228      -1.530415
                                                         3.849621      -1.371928
                                                         1.388401      -0.761951
                                                         0.496955      -0.253695
                                                         0.162492      -0.035541

                          1       4    4px              10.389228      -0.565392
                                                         3.849621      -0.038231
                                                         1.388401      -0.382373
                                                         0.496955       0.179070
                                                         0.162492       0.122714
                          1       4    4py              10.389228      -0.565392
                                                         3.849621      -0.038231
                                                         1.388401      -0.382373
                                                         0.496955       0.179070
                                                         0.162492       0.122714
                          1       4    4pz              10.389228      -0.565392
                                                         3.849621      -0.038231
                                                         1.388401      -0.382373
                                                         0.496955       0.179070
                                                         0.162492       0.122714

                          1       5    4dx2             10.389228       1.867377
                                                         3.849621       0.670994
                                                         1.388401       1.353441
                                                         0.496955       0.273538
                                                         0.162492       0.006620
                          1       5    4dxy             10.389228       3.234392
                                                         3.849621       1.162195
                                                         1.388401       2.344229
                                                         0.496955       0.473781
                                                         0.162492       0.011466
                          1       5    4dxz             10.389228       3.234392
                                                         3.849621       1.162195
                                                         1.388401       2.344229
                                                         0.496955       0.473781
                                                         0.162492       0.011466
                          1       5    4dy2             10.389228       1.867377
                                                         3.849621       0.670994
                                                         1.388401       1.353441
                                                         0.496955       0.273538
                                                         0.162492       0.006620
                          1       5    4dyz             10.389228       3.234392
                                                         3.849621       1.162195
                                                         1.388401       2.344229
                                                         0.496955       0.473781
                                                         0.162492       0.011466
                          1       5    4dz2             10.389228       1.867377
                                                         3.849621       0.670994
                                                         1.388401       1.353441
                                                         0.496955       0.273538
                                                         0.162492       0.006620

     GTH Potential information for                                    GTH-PBE-q6

       Description:                       Goedecker-Teter-Hutter pseudopotential
                                           Goedecker et al., PRB 54, 1703 (1996)
                                          Hartwigsen et al., PRB 58, 3641 (1998)
                                                      Krack, TCA 114, 145 (2005)

       Gaussian exponent of the core charge distribution:               8.360253
       Electronic configuration (s p d ...):                               2   4

       Parameters of the local part of the GTH pseudopotential:

                          rloc        C1          C2          C3          C4
                        0.244554  -16.667215    2.487311

       Parameters of the non-local part of the GTH pseudopotential:

                   l      r(l)      h(i,j,l)

                   0    0.220956   18.337458
                   1    0.211332

  3. Atomic kind: H                                     Number of atoms:       2

     Orbital Basis Set                                        DZVP-MOLOPT-SR-GTH

       Number of orbital shell sets:                                           1
       Number of orbital shells:                                               3
       Number of primitive Cartesian functions:                                5
       Number of Cartesian basis functions:                                    5
       Number of spherical basis functions:                                    5
       Norm type:                                                              2

       Normalised Cartesian orbitals:

                        Set   Shell   Orbital            Exponent    Coefficient

                          1       1    2s               10.068468      -0.133023
                                                         2.680223      -0.177618
                                                         0.791502      -0.258419
                                                         0.239116      -0.107525
                                                         0.082193      -0.014019

                          1       2    3s               10.068468       0.344673
                                                         2.680223       1.819821
                                                         0.791502      -0.999069
                                                         0.239116       0.017430
                                                         0.082193       0.082660

                          1       3    3px              10.068468       0.155326
                                                         2.680223       0.367157
                                                         0.791502       0.311480
                                                         0.239116       0.080105
                                                         0.082193       0.033440
                          1       3    3py              10.068468       0.155326
                                                         2.680223       0.367157
                                                         0.791502       0.311480
                                                         0.239116       0.080105
                                                         0.082193       0.033440
                          1       3    3pz              10.068468       0.155326
                                                         2.680223       0.367157
                                                         0.791502       0.311480
                                                         0.239116       0.080105
                                                         0.082193       0.033440

     GTH Potential information for                                    GTH-PBE-q1

       Description:                       Goedecker-Teter-Hutter pseudopotential
                                           Goedecker et al., PRB 54, 1703 (1996)
                                          Hartwigsen et al., PRB 58, 3641 (1998)
                                                      Krack, TCA 114, 145 (2005)

       Gaussian exponent of the core charge distribution:              12.500000
       Electronic configuration (s p d ...):                                   1

       Parameters of the local part of the GTH pseudopotential:

                          rloc        C1          C2          C3          C4
                        0.200000   -4.178900    0.724463


 MOLECULE KIND INFORMATION


 All atoms are their own molecule, skipping detailed information


 TOTAL NUMBERS AND MAXIMUM NUMBERS

  Total number of            - Atomic kinds:                                   3
                             - Atoms:                                         99
                             - Shell sets:                                    99
                             - Shells:                                       587
                             - Primitive Cartesian functions:                495
                             - Cartesian basis functions:                   2232
                             - Spherical basis functions:                   1943

  Maximum angular momentum of- Orbital basis functions:                        2
                             - Local part of the GTH pseudopotential:          2
                             - Non-local part of the GTH pseudopotential:      4


 MODULE QUICKSTEP:  ATOMIC COORDINATES IN angstrom

  Atom  Kind  Element       X           Y           Z          Z(eff)       Mass

       1     1 Pt  78    1.405728    0.811598   15.000000     10.00     195.0840
       2     1 Pt  78    4.217185    0.811598   15.000000     10.00     195.0840
       3     1 Pt  78    7.028641    0.811598   15.000000     10.00     195.0840
       4     1 Pt  78    9.840098    0.811598   15.000000     10.00     195.0840
       5     1 Pt  78    0.000000    3.246390   15.000000     10.00     195.0840
       6     1 Pt  78    2.811457    3.246390   15.000000     10.00     195.0840
       7     1 Pt  78    5.622913    3.246390   15.000000     10.00     195.0840
       8     1 Pt  78    8.434370    3.246390   15.000000     10.00     195.0840
       9     1 Pt  78    1.405728    5.681183   15.000000     10.00     195.0840
      10     1 Pt  78    4.217185    5.681183   15.000000     10.00     195.0840
      11     1 Pt  78    7.028641    5.681183   15.000000     10.00     195.0840
      12     1 Pt  78    9.840098    5.681183   15.000000     10.00     195.0840
      13     1 Pt  78    0.000000    8.115976   15.000000     10.00     195.0840
      14     1 Pt  78    2.811457    8.115976   15.000000     10.00     195.0840
      15     1 Pt  78    5.622913    8.115976   15.000000     10.00     195.0840
      16     1 Pt  78    8.434370    8.115976   15.000000     10.00     195.0840
      17     1 Pt  78    0.000000    1.623195   17.295545     10.00     195.0840
      18     1 Pt  78    2.811457    1.623195   17.295545     10.00     195.0840
      19     1 Pt  78    5.622913    1.623195   17.295545     10.00     195.0840
      20     1 Pt  78    8.434370    1.623195   17.295545     10.00     195.0840
      21     1 Pt  78    1.405728    4.057988   17.295545     10.00     195.0840
      22     1 Pt  78    4.217185    4.057988   17.295545     10.00     195.0840
      23     1 Pt  78    7.028641    4.057988   17.295545     10.00     195.0840
      24     1 Pt  78    9.840098    4.057988   17.295545     10.00     195.0840
      25     1 Pt  78    0.000000    6.492781   17.295545     10.00     195.0840
      26     1 Pt  78    2.811457    6.492781   17.295545     10.00     195.0840
      27     1 Pt  78    5.622913    6.492781   17.295545     10.00     195.0840
      28     1 Pt  78    8.434370    6.492781   17.295545     10.00     195.0840
      29     1 Pt  78    1.405728    8.927574   17.295545     10.00     195.0840
      30     1 Pt  78    4.217185    8.927574   17.295545     10.00     195.0840
      31     1 Pt  78    7.028641    8.927574   17.295545     10.00     195.0840
      32     1 Pt  78    9.840098    8.927574   17.295545     10.00     195.0840
      33     1 Pt  78    0.000000    0.000000   19.591089     10.00     195.0840
      34     1 Pt  78    2.811457    0.000000   19.591089     10.00     195.0840
      35     1 Pt  78    5.622913    0.000000   19.591089     10.00     195.0840
      36     1 Pt  78    8.434370    0.000000   19.591089     10.00     195.0840
      37     1 Pt  78    1.405728    2.434793   19.591089     10.00     195.0840
      38     1 Pt  78    4.217185    2.434793   19.591089     10.00     195.0840
      39     1 Pt  78    7.028641    2.434793   19.591089     10.00     195.0840
      40     1 Pt  78    9.840098    2.434793   19.591089     10.00     195.0840
      41     1 Pt  78    0.000000    4.869586   19.591089     10.00     195.0840
      42     1 Pt  78    2.811457    4.869586   19.591089     10.00     195.0840
      43     1 Pt  78    5.622913    4.869586   19.591089     10.00     195.0840
      44     1 Pt  78    8.434370    4.869586   19.591089     10.00     195.0840
      45     1 Pt  78    1.405728    7.304378   19.591089     10.00     195.0840
      46     1 Pt  78    4.217185    7.304378   19.591089     10.00     195.0840
      47     1 Pt  78    7.028641    7.304378   19.591089     10.00     195.0840
      48     1 Pt  78    9.840098    7.304378   19.591089     10.00     195.0840
      49     1 Pt  78    1.405728    0.811598   21.886634     10.00     195.0840
      50     1 Pt  78    4.217185    0.811598   21.886634     10.00     195.0840
      51     1 Pt  78    7.028641    0.811598   21.886634     10.00     195.0840
      52     1 Pt  78    9.840098    0.811598   21.886634     10.00     195.0840
      53     1 Pt  78    0.000000    3.246390   21.886634     10.00     195.0840
      54     1 Pt  78    2.811457    3.246390   21.886634     10.00     195.0840
      55     1 Pt  78    5.622913    3.246390   21.886634     10.00     195.0840
      56     1 Pt  78    8.434370    3.246390   21.886634     10.00     195.0840
      57     1 Pt  78    1.405728    5.681183   21.886634     10.00     195.0840
      58     1 Pt  78    4.217185    5.681183   21.886634     10.00     195.0840
      59     1 Pt  78    7.028641    5.681183   21.886634     10.00     195.0840
      60     1 Pt  78    9.840098    5.681183   21.886634     10.00     195.0840
      61     1 Pt  78    0.000000    8.115976   21.886634     10.00     195.0840
      62     1 Pt  78    2.811457    8.115976   21.886634     10.00     195.0840
      63     1 Pt  78    5.622913    8.115976   21.886634     10.00     195.0840
      64     1 Pt  78    8.434370    8.115976   21.886634     10.00     195.0840
      65     1 Pt  78    0.000000    1.623195   24.182179     10.00     195.0840
      66     1 Pt  78    2.811457    1.623195   24.182179     10.00     195.0840
      67     1 Pt  78    5.622913    1.623195   24.182179     10.00     195.0840
      68     1 Pt  78    8.434370    1.623195   24.182179     10.00     195.0840
      69     1 Pt  78    1.405728    4.057988   24.182179     10.00     195.0840
      70     1 Pt  78    4.217185    4.057988   24.182179     10.00     195.0840
      71     1 Pt  78    7.028641    4.057988   24.182179     10.00     195.0840
      72     1 Pt  78    9.840098    4.057988   24.182179     10.00     195.0840
      73     1 Pt  78    0.000000    6.492781   24.182179     10.00     195.0840
      74     1 Pt  78    2.811457    6.492781   24.182179     10.00     195.0840
      75     1 Pt  78    5.622913    6.492781   24.182179     10.00     195.0840
      76     1 Pt  78    8.434370    6.492781   24.182179     10.00     195.0840
      77     1 Pt  78    1.405728    8.927574   24.182179     10.00     195.0840
      78     1 Pt  78    4.217185    8.927574   24.182179     10.00     195.0840
      79     1 Pt  78    7.028641    8.927574   24.182179     10.00     195.0840
      80     1 Pt  78    9.840098    8.927574   24.182179     10.00     195.0840
      81     1 Pt  78    0.000000    0.000000   26.477723     10.00     195.0840
      82     1 Pt  78    2.811457    0.000000   26.477723     10.00     195.0840
      83     1 Pt  78    5.622913    0.000000   26.477723     10.00     195.0840
      84     1 Pt  78    8.434370    0.000000   26.477723     10.00     195.0840
      85     1 Pt  78    1.405728    2.434793   26.477723     10.00     195.0840
      86     1 Pt  78    4.217185    2.434793   26.477723     10.00     195.0840
      87     1 Pt  78    7.028641    2.434793   26.477723     10.00     195.0840
      88     1 Pt  78    9.840098    2.434793   26.477723     10.00     195.0840
      89     1 Pt  78    0.000000    4.869586   26.477723     10.00     195.0840
      90     1 Pt  78    2.811457    4.869586   26.477723     10.00     195.0840
      91     1 Pt  78    5.622913    4.869586   26.477723     10.00     195.0840
      92     1 Pt  78    8.434370    4.869586   26.477723     10.00     195.0840
      93     1 Pt  78    1.405728    7.304378   26.477723     10.00     195.0840
      94     1 Pt  78    4.217185    7.304378   26.477723     10.00     195.0840
      95     1 Pt  78    7.028641    7.304378   26.477723     10.00     195.0840
      96     1 Pt  78    9.840098    7.304378   26.477723     10.00     195.0840
      97     2 O    8    5.622913    4.869586   29.177723      6.00      15.9994
      98     3 H    1    5.622913    5.809381   29.412038      1.00       1.0079
      99     3 H    1    5.622913    4.869585   28.209158      1.00       1.0079




 SCF PARAMETERS         Density guess:                                   RESTART
                        --------------------------------------------------------
                        max_scf:                                             500
                        max_scf_history:                                       0
                        max_diis:                                              4
                        --------------------------------------------------------
                        eps_scf:                                        1.00E-06
                        eps_scf_history:                                0.00E+00
                        eps_diis:                                       1.00E-01
                        eps_eigval:                                     1.00E-05
                        --------------------------------------------------------
                        level_shift [a.u.]:                                 0.00
                        added MOs                                       500    0
                        --------------------------------------------------------
                        Mixing method:                            BROYDEN_MIXING
                                                charge density mixing in g-space
                        --------------------------------------------------------
                        Smear method:                                FERMI_DIRAC
                        Electronic temperature [K]:                        300.0
                        Electronic temperature [a.u.]:                  9.50E-04
                        Accuracy threshold:                             1.00E-10
                        --------------------------------------------------------
                        No outer SCF

 PW_GRID| Information for grid number                                          1
 PW_GRID| Grid distributed over                                    32 processors
 PW_GRID| Real space group dimensions                                    32    1
 PW_GRID| the grid is blocked:                                                NO
 PW_GRID| Cutoff [a.u.]                                                    200.0
 PW_GRID| spherical cutoff:                                                   NO
 PW_GRID|   Bounds   1            -67      67                Points:         135
 PW_GRID|   Bounds   2            -60      59                Points:         120
 PW_GRID|   Bounds   3           -250     249                Points:         500
 PW_GRID| Volume element (a.u.^3)  0.3785E-02     Volume (a.u.^3)     30656.6653
 PW_GRID| Grid span                                                    FULLSPACE
 PW_GRID|   Distribution                         Average         Max         Min
 PW_GRID|   G-Vectors                           253125.0      253125      253125
 PW_GRID|   G-Rays                                1875.0        1875        1875
 PW_GRID|   Real Space Points                   253125.0      300000      240000

 PW_GRID| Information for grid number                                          2
 PW_GRID| Number of the reference grid                                         1
 PW_GRID| Grid distributed over                                    32 processors
 PW_GRID| Real space group dimensions                                    32    1
 PW_GRID| the grid is blocked:                                                NO
 PW_GRID| Cutoff [a.u.]                                                     66.7
 PW_GRID| spherical cutoff:                                                   NO
 PW_GRID|   Bounds   1            -40      39                Points:          80
 PW_GRID|   Bounds   2            -36      35                Points:          72
 PW_GRID|   Bounds   3           -150     149                Points:         300
 PW_GRID| Volume element (a.u.^3)  0.1774E-01     Volume (a.u.^3)     30656.6653
 PW_GRID| Grid span                                                    FULLSPACE
 PW_GRID|   Distribution                         Average         Max         Min
 PW_GRID|   G-Vectors                            54000.0       54640       53520
 PW_GRID|   G-Rays                                 675.0         683         669
 PW_GRID|   Real Space Points                    54000.0       64800       43200

 PW_GRID| Information for grid number                                          3
 PW_GRID| Number of the reference grid                                         1
 PW_GRID| Grid distributed over                                    32 processors
 PW_GRID| Real space group dimensions                                    32    1
 PW_GRID| the grid is blocked:                                                NO
 PW_GRID| Cutoff [a.u.]                                                     22.2
 PW_GRID| spherical cutoff:                                                   NO
 PW_GRID|   Bounds   1            -22      22                Points:          45
 PW_GRID|   Bounds   2            -20      19                Points:          40
 PW_GRID|   Bounds   3            -90      89                Points:         180
 PW_GRID| Volume element (a.u.^3)  0.9462E-01     Volume (a.u.^3)     30656.6653
 PW_GRID| Grid span                                                    FULLSPACE
 PW_GRID|   Distribution                         Average         Max         Min
 PW_GRID|   G-Vectors                            10125.0       10260       10035
 PW_GRID|   G-Rays                                 225.0         228         223
 PW_GRID|   Real Space Points                    10125.0       14400        7200

 PW_GRID| Information for grid number                                          4
 PW_GRID| Number of the reference grid                                         1
 PW_GRID| Grid distributed over                                    32 processors
 PW_GRID| Real space group dimensions                                     4    8
 PW_GRID| the grid is blocked:                                                NO
 PW_GRID| Cutoff [a.u.]                                                      7.4
 PW_GRID| spherical cutoff:                                                   NO
 PW_GRID|   Bounds   1            -13      13                Points:          27
 PW_GRID|   Bounds   2            -12      11                Points:          24
 PW_GRID|   Bounds   3            -50      49                Points:         100
 PW_GRID| Volume element (a.u.^3)  0.4731         Volume (a.u.^3)     30656.6653
 PW_GRID| Grid span                                                    FULLSPACE
 PW_GRID|   Distribution                         Average         Max         Min
 PW_GRID|   G-Vectors                             2025.0        2133        1890
 PW_GRID|   G-Rays                                  75.0          79          70
 PW_GRID|   Real Space Points                     2025.0        2100        1800

 POISSON| Solver                                                        PERIODIC
 POISSON| Periodicity                                                        XYZ

 RS_GRID| Information for grid number                                          1
 RS_GRID|   Bounds   1            -67      67                Points:         135
 RS_GRID|   Bounds   2            -60      59                Points:         120
 RS_GRID|   Bounds   3           -250     249                Points:         500
 RS_GRID| Real space distribution over                                 32 groups
 RS_GRID| Real space distribution along direction                              3
 RS_GRID| Border size                                                         34
 RS_GRID|   Distribution                         Average         Max         Min
 RS_GRID|   Planes                                  83.6          84          83

 RS_GRID| Information for grid number                                          2
 RS_GRID|   Bounds   1            -40      39                Points:          80
 RS_GRID|   Bounds   2            -36      35                Points:          72
 RS_GRID|   Bounds   3           -150     149                Points:         300
 RS_GRID| Real space distribution over                                 32 groups
 RS_GRID| Real space distribution along direction                              3
 RS_GRID| Border size                                                         24
 RS_GRID|   Distribution                         Average         Max         Min
 RS_GRID|   Planes                                  57.4          58          57

 RS_GRID| Information for grid number                                          3
 RS_GRID|   Bounds   1            -22      22                Points:          45
 RS_GRID|   Bounds   2            -20      19                Points:          40
 RS_GRID|   Bounds   3            -90      89                Points:         180
 RS_GRID| Real space fully replicated
 RS_GRID| Group size                                                           1

 RS_GRID| Information for grid number                                          4
 RS_GRID|   Bounds   1            -13      13                Points:          27
 RS_GRID|   Bounds   2            -12      11                Points:          24
 RS_GRID|   Bounds   3            -50      49                Points:         100
 RS_GRID| Real space fully replicated
 RS_GRID| Group size                                                           1

 Number of electrons:                                                        968
 Number of occupied orbitals:                                                484
 Number of molecular orbitals:                                               984

 Number of orbital functions:                                               1943
 Number of independent orbital functions:                                   1943

 Extrapolation method: initial_guess


 SCF WAVEFUNCTION OPTIMIZATION

  Step     Update method      Time    Convergence         Total energy    Change
  ------------------------------------------------------------------------------
     1 NoMix/Diag. 0.30E+00    1.0     0.00011015     -2538.0116775626 -2.54E+03
     2 Broy./Diag. 0.30E+00    1.4     0.00137527     -2538.0441822404 -3.25E-02
     3 Broy./Diag. 0.30E+00   18.9     0.00130453     -2538.0435462680  6.36E-04
     4 Broy./Diag. 0.30E+00    1.4     0.00014696     -2538.0436355432 -8.93E-05
     5 Broy./Diag. 0.30E+00    1.4     0.00008646     -2538.0450917367 -1.46E-03
     6 Broy./Diag. 0.30E+00    1.4     0.00002297     -2538.0437751390  1.32E-03
     7 Broy./Diag. 0.30E+00    1.4     0.00000868     -2538.0440755172 -3.00E-04
     8 Broy./Diag. 0.30E+00    1.4     0.00000240     -2538.0439801386  9.54E-05
     9 Broy./Diag. 0.30E+00    1.4     0.00000106     -2538.0439876116 -7.47E-06
    10 Broy./Diag. 0.30E+00    1.4     0.00000057     -2538.0439882195 -6.08E-07

  *** SCF run converged in    10 steps ***


  Electronic density on regular grids:       -968.0000000014       -0.0000000014
  Core density on regular grids:              967.9999999998       -0.0000000002
  Total charge density on r-space grids:       -0.0000000016
  Total charge density g-space grids:          -0.0000000016

  Overlap energy of the core charge distribution:               0.00001201125945
  Self energy of the core charge distribution:              -4440.62962420003350
  Core Hamiltonian energy:                                   1440.06192475822218
  Hartree energy:                                             901.42344825591101
  Exchange-correlation energy:                               -436.74779842564067
  Dispersion energy:                                           -2.11963702826893
  Electronic entropic energy:                                  -0.03231359308290
  Fermi energy:                                                 0.00186811175180

  Total energy:                                             -2538.04398821954965

 The electron density is written in cube file format to the file:

 cp2k-ELECTRON_DENSITY-1_0.cube

 !-----------------------------------------------------------------------------!
                     Mulliken Population Analysis

 #  Atom  Element  Kind  Atomic population                           Net charge
       1     Pt       1         10.054336                             -0.054336
       2     Pt       1         10.054376                             -0.054376
       3     Pt       1         10.054375                             -0.054375
       4     Pt       1         10.054334                             -0.054334
       5     Pt       1         10.054404                             -0.054404
       6     Pt       1         10.054420                             -0.054420
       7     Pt       1         10.054615                             -0.054615
       8     Pt       1         10.054419                             -0.054419
       9     Pt       1         10.054292                             -0.054292
      10     Pt       1         10.054635                             -0.054635
      11     Pt       1         10.054635                             -0.054635
      12     Pt       1         10.054289                             -0.054289
      13     Pt       1         10.054624                             -0.054624
      14     Pt       1         10.054352                             -0.054352
      15     Pt       1         10.054186                             -0.054186
      16     Pt       1         10.054351                             -0.054351
      17     Pt       1          9.972478                              0.027522
      18     Pt       1          9.971847                              0.028153
      19     Pt       1          9.972052                              0.027948
      20     Pt       1          9.971845                              0.028155
      21     Pt       1          9.971829                              0.028171
      22     Pt       1          9.972131                              0.027869
      23     Pt       1          9.972131                              0.027869
      24     Pt       1          9.971824                              0.028176
      25     Pt       1          9.972025                              0.027975
      26     Pt       1          9.972083                              0.027917
      27     Pt       1          9.972234                              0.027766
      28     Pt       1          9.972081                              0.027919
      29     Pt       1          9.972060                              0.027940
      30     Pt       1          9.972081                              0.027919
      31     Pt       1          9.972081                              0.027919
      32     Pt       1          9.972055                              0.027945
      33     Pt       1          9.973224                              0.026776
      34     Pt       1          9.973479                              0.026521
      35     Pt       1          9.973637                              0.026363
      36     Pt       1          9.973477                              0.026523
      37     Pt       1          9.973822                              0.026178
      38     Pt       1          9.973433                              0.026567
      39     Pt       1          9.973433                              0.026567
      40     Pt       1          9.973817                              0.026183
      41     Pt       1          9.973968                              0.026032
      42     Pt       1          9.973675                              0.026325
      43     Pt       1          9.973725                              0.026275
      44     Pt       1          9.973673                              0.026327
      45     Pt       1          9.973228                              0.026772
      46     Pt       1          9.973491                              0.026509
      47     Pt       1          9.973491                              0.026509
      48     Pt       1          9.973223                              0.026777
      49     Pt       1          9.973336                              0.026664
      50     Pt       1          9.973317                              0.026683
      51     Pt       1          9.973317                              0.026683
      52     Pt       1          9.973331                              0.026669
      53     Pt       1          9.972877                              0.027123
      54     Pt       1          9.974667                              0.025333
      55     Pt       1          9.973687                              0.026313
      56     Pt       1          9.974666                              0.025334
      57     Pt       1          9.973486                              0.026514
      58     Pt       1          9.973531                              0.026469
      59     Pt       1          9.973531                              0.026469
      60     Pt       1          9.973481                              0.026519
      61     Pt       1          9.973740                              0.026260
      62     Pt       1          9.973407                              0.026593
      63     Pt       1          9.975040                              0.024960
      64     Pt       1          9.973405                              0.026595
      65     Pt       1          9.972601                              0.027399
      66     Pt       1          9.972743                              0.027257
      67     Pt       1          9.972438                              0.027562
      68     Pt       1          9.972741                              0.027259
      69     Pt       1          9.972542                              0.027458
      70     Pt       1          9.970640                              0.029360
      71     Pt       1          9.970640                              0.029360
      72     Pt       1          9.972537                              0.027463
      73     Pt       1          9.972505                              0.027495
      74     Pt       1          9.972823                              0.027177
      75     Pt       1          9.971794                              0.028206
      76     Pt       1          9.972821                              0.027179
      77     Pt       1          9.972412                              0.027588
      78     Pt       1          9.972072                              0.027928
      79     Pt       1          9.972071                              0.027929
      80     Pt       1          9.972408                              0.027592
      81     Pt       1         10.053097                             -0.053097
      82     Pt       1         10.052276                             -0.052276
      83     Pt       1         10.056711                             -0.056711
      84     Pt       1         10.052275                             -0.052275
      85     Pt       1         10.052206                             -0.052206
      86     Pt       1         10.029525                             -0.029525
      87     Pt       1         10.029525                             -0.029525
      88     Pt       1         10.052203                             -0.052203
      89     Pt       1         10.051867                             -0.051867
      90     Pt       1         10.029061                             -0.029061
      91     Pt       1         10.113582                             -0.113582
      92     Pt       1         10.029060                             -0.029060
      93     Pt       1         10.053968                             -0.053968
      94     Pt       1         10.050337                             -0.050337
      95     Pt       1         10.050337                             -0.050337
      96     Pt       1         10.053965                             -0.053965
      97     O        2          6.197812                             -0.197812
      98     H        3          0.873977                              0.126023
      99     H        3          0.983331                              0.016669
 # Total charge                            968.000000                  0.000000

 !-----------------------------------------------------------------------------!

 !-----------------------------------------------------------------------------!
                           Hirshfeld Charges

  #Atom  Element  Kind  Ref Charge     Population                    Net charge
      1       Pt     1      10.000         10.015                        -0.015
      2       Pt     1      10.000         10.015                        -0.015
      3       Pt     1      10.000         10.015                        -0.015
      4       Pt     1      10.000         10.014                        -0.014
      5       Pt     1      10.000         10.014                        -0.014
      6       Pt     1      10.000         10.015                        -0.015
      7       Pt     1      10.000         10.015                        -0.015
      8       Pt     1      10.000         10.015                        -0.015
      9       Pt     1      10.000         10.014                        -0.014
     10       Pt     1      10.000         10.015                        -0.015
     11       Pt     1      10.000         10.015                        -0.015
     12       Pt     1      10.000         10.014                        -0.014
     13       Pt     1      10.000         10.015                        -0.015
     14       Pt     1      10.000         10.015                        -0.015
     15       Pt     1      10.000         10.014                        -0.014
     16       Pt     1      10.000         10.015                        -0.015
     17       Pt     1      10.000          9.988                         0.012
     18       Pt     1      10.000          9.987                         0.013
     19       Pt     1      10.000          9.987                         0.013
     20       Pt     1      10.000          9.987                         0.013
     21       Pt     1      10.000          9.987                         0.013
     22       Pt     1      10.000          9.987                         0.013
     23       Pt     1      10.000          9.987                         0.013
     24       Pt     1      10.000          9.987                         0.013
     25       Pt     1      10.000          9.987                         0.013
     26       Pt     1      10.000          9.987                         0.013
     27       Pt     1      10.000          9.987                         0.013
     28       Pt     1      10.000          9.987                         0.013
     29       Pt     1      10.000          9.987                         0.013
     30       Pt     1      10.000          9.987                         0.013
     31       Pt     1      10.000          9.987                         0.013
     32       Pt     1      10.000          9.987                         0.013
     33       Pt     1      10.000          9.998                         0.002
     34       Pt     1      10.000          9.998                         0.002
     35       Pt     1      10.000          9.998                         0.002
     36       Pt     1      10.000          9.998                         0.002
     37       Pt     1      10.000          9.998                         0.002
     38       Pt     1      10.000          9.998                         0.002
     39       Pt     1      10.000          9.998                         0.002
     40       Pt     1      10.000          9.998                         0.002
     41       Pt     1      10.000          9.998                         0.002
     42       Pt     1      10.000          9.998                         0.002
     43       Pt     1      10.000          9.998                         0.002
     44       Pt     1      10.000          9.998                         0.002
     45       Pt     1      10.000          9.998                         0.002
     46       Pt     1      10.000          9.998                         0.002
     47       Pt     1      10.000          9.998                         0.002
     48       Pt     1      10.000          9.998                         0.002
     49       Pt     1      10.000          9.998                         0.002
     50       Pt     1      10.000          9.998                         0.002
     51       Pt     1      10.000          9.998                         0.002
     52       Pt     1      10.000          9.998                         0.002
     53       Pt     1      10.000          9.998                         0.002
     54       Pt     1      10.000          9.998                         0.002
     55       Pt     1      10.000          9.998                         0.002
     56       Pt     1      10.000          9.998                         0.002
     57       Pt     1      10.000          9.998                         0.002
     58       Pt     1      10.000          9.997                         0.003
     59       Pt     1      10.000          9.997                         0.003
     60       Pt     1      10.000          9.998                         0.002
     61       Pt     1      10.000          9.998                         0.002
     62       Pt     1      10.000          9.998                         0.002
     63       Pt     1      10.000          9.998                         0.002
     64       Pt     1      10.000          9.998                         0.002
     65       Pt     1      10.000          9.987                         0.013
     66       Pt     1      10.000          9.987                         0.013
     67       Pt     1      10.000          9.987                         0.013
     68       Pt     1      10.000          9.987                         0.013
     69       Pt     1      10.000          9.987                         0.013
     70       Pt     1      10.000          9.988                         0.012
     71       Pt     1      10.000          9.988                         0.012
     72       Pt     1      10.000          9.987                         0.013
     73       Pt     1      10.000          9.987                         0.013
     74       Pt     1      10.000          9.987                         0.013
     75       Pt     1      10.000          9.989                         0.011
     76       Pt     1      10.000          9.987                         0.013
     77       Pt     1      10.000          9.987                         0.013
     78       Pt     1      10.000          9.987                         0.013
     79       Pt     1      10.000          9.987                         0.013
     80       Pt     1      10.000          9.987                         0.013
     81       Pt     1      10.000         10.013                        -0.013
     82       Pt     1      10.000         10.013                        -0.013
     83       Pt     1      10.000         10.015                        -0.015
     84       Pt     1      10.000         10.013                        -0.013
     85       Pt     1      10.000         10.011                        -0.011
     86       Pt     1      10.000         10.014                        -0.014
     87       Pt     1      10.000         10.014                        -0.014
     88       Pt     1      10.000         10.011                        -0.011
     89       Pt     1      10.000         10.012                        -0.012
     90       Pt     1      10.000         10.022                        -0.022
     91       Pt     1      10.000         10.325                        -0.325
     92       Pt     1      10.000         10.022                        -0.022
     93       Pt     1      10.000         10.013                        -0.013
     94       Pt     1      10.000         10.051                        -0.051
     95       Pt     1      10.000         10.051                        -0.051
     96       Pt     1      10.000         10.013                        -0.013
     97       O      2       6.000          6.780                        -0.780
     98       H      3       1.000          0.438                         0.562
     99       H      3       1.000          0.409                         0.591

  Total Charge                                                            0.000
 !-----------------------------------------------------------------------------!

 LOCALIZE| The spread relative to a set of orbitals is computed
 LOCALIZE| Orbitals to be localized: All orbitals
 LOCALIZE| If fractional occupation, fully occupied MOs are those 
           within occupation tolerance of       0.00000001
 LOCALIZE| Spread defined by the Berry phase operator 
 LOCALIZE| Optimal unitary transformation generated by Jacobi algorithm

         Restart file not available filename=<cp2k-LOC_HOMO-1_0.wfn>

 LOCALIZATION|    The orbitals to be localized are read from localization restart file.

 LOCALIZATION| Spin    1 The first    438 occupied orbitals are localized,
               with energies from    -0.736739 to    -0.016471 [a.u.].

 LOCALIZATION| Computing localization properties for OCCUPIED ORBITALS. Spin:  1
    Spread Functional     sum_in -w_i ln(|z_in|^2)    sum_in w_i(1-|z_in|^2)
    Initial Spread (Berry) :            119824.1870593705    29898.5297158748
    Localization by iterative distributed Jacobi rotation
                      Iteration            Functional         Tolerance   Time 
                            100        5071.0634614606       0.3959E+01   0.060
                            200        5070.2562649426       0.1328E+01   0.060
                            300        5070.1841696256       0.7465E+00   0.061
                            400        5070.1604060402       0.8253E+00   0.060
                            500        5070.0447998012       0.4368E+01   0.060
                            600        5069.0862663770       0.5938E+01   0.060
                            700        5068.7369156402       0.7171E+01   0.061
                            800        5068.5368089229       0.1303E+00   0.061
                            900        5068.5364873273       0.1841E-01   0.062
    Localization  for spin   1 converged in    930 iterations
    Spread Functional     sum_in -w_i ln(|z_in|^2)    sum_in w_i(1-|z_in|^2)
    Total Spread (Berry) :                5921.9243583541     5068.5364838490

 LOCALIZATION| Write restart file for the localized MOS : cp2k-LOC_HOMO-1_0.wfn


 ENERGY| Total FORCE_EVAL ( QS ) energy (a.u.):            -2538.043991155489039


 ATOMIC FORCES in [a.u.]

 # Atom   Kind   Element          X              Y              Z
      1      1      Pt          0.00004152    -0.00136822    -0.01273599
      2      1      Pt          0.00004191    -0.00126616    -0.01269628
      3      1      Pt         -0.00004279    -0.00126614    -0.01269625
      4      1      Pt         -0.00004167    -0.00136839    -0.01273705
      5      1      Pt          0.00000107    -0.00128838    -0.01270422
      6      1      Pt          0.00003410    -0.00121461    -0.01270284
      7      1      Pt         -0.00000008    -0.00123963    -0.01271145
      8      1      Pt         -0.00003405    -0.00121457    -0.01270310
      9      1      Pt          0.00012835    -0.00130046    -0.01268192
     10      1      Pt          0.00007103    -0.00126248    -0.01276153
     11      1      Pt         -0.00007191    -0.00126246    -0.01276148
     12      1      Pt         -0.00012850    -0.00130062    -0.01268297
     13      1      Pt          0.00000106    -0.00121299    -0.01268194
     14      1      Pt         -0.00015182    -0.00122050    -0.01272272
     15      1      Pt         -0.00000008    -0.00132166    -0.01266861
     16      1      Pt          0.00015186    -0.00122045    -0.01272301
     17      1      Pt          0.00000203    -0.00047251     0.00965264
     18      1      Pt         -0.00004731    -0.00048756     0.00982575
     19      1      Pt          0.00000034    -0.00055097     0.00977086
     20      1      Pt          0.00004640    -0.00048762     0.00982609
     21      1      Pt          0.00004071    -0.00046578     0.00979872
     22      1      Pt         -0.00005006    -0.00063291     0.00982264
     23      1      Pt          0.00004916    -0.00063284     0.00982247
     24      1      Pt         -0.00004126    -0.00046582     0.00979861
     25      1      Pt          0.00000202    -0.00053255     0.00974629
     26      1      Pt          0.00002245    -0.00041879     0.00973339
     27      1      Pt          0.00000033    -0.00030977     0.00972382
     28      1      Pt         -0.00002336    -0.00041884     0.00973371
     29      1      Pt          0.00003078    -0.00045560     0.00977886
     30      1      Pt          0.00002242    -0.00047673     0.00976328
     31      1      Pt         -0.00002333    -0.00047665     0.00976313
     32      1      Pt         -0.00003131    -0.00045565     0.00977876
     33      1      Pt          0.00000212     0.00186429     0.00091127
     34      1      Pt         -0.00001404     0.00170279     0.00098649
     35      1      Pt          0.00000040     0.00191302     0.00092663
     36      1      Pt          0.00001272     0.00170269     0.00098633
     37      1      Pt         -0.00019088     0.00181185     0.00081673
     38      1      Pt         -0.00006716     0.00169397     0.00106653
     39      1      Pt          0.00006635     0.00169414     0.00106671
     40      1      Pt          0.00019051     0.00181201     0.00081681
     41      1      Pt          0.00000213     0.00171103     0.00116193
     42      1      Pt          0.00001774     0.00169749     0.00108779
     43      1      Pt          0.00000040     0.00189059     0.00113179
[...]
     65      1      Pt          0.00000203     0.00051134    -0.00971712
     66      1      Pt          0.00002069     0.00076891    -0.00973753
     67      1      Pt          0.00000033     0.00037970    -0.00969782
     68      1      Pt         -0.00002161     0.00076897    -0.00973784
     69      1      Pt          0.00018067     0.00052075    -0.00977319
     70      1      Pt         -0.00029643     0.00027572    -0.01026451
     71      1      Pt          0.00029552     0.00027565    -0.01026435
     72      1      Pt         -0.00018121     0.00052079    -0.00977309
     73      1      Pt          0.00000204     0.00054383    -0.00965525
     74      1      Pt          0.00006773     0.00043889    -0.00971517
     75      1      Pt          0.00000033     0.00117211    -0.01060880
     76      1      Pt         -0.00006865     0.00043894    -0.00971550
     77      1      Pt         -0.00005985     0.00042799    -0.00969763
     78      1      Pt         -0.00001305     0.00038885    -0.00988260
     79      1      Pt          0.00001215     0.00038879    -0.00988241
     80      1      Pt          0.00005932     0.00042803    -0.00969753
     81      1      Pt          0.00000105     0.00123839     0.01268637
     82      1      Pt         -0.00034304     0.00101795     0.01267241
     83      1      Pt         -0.00000007     0.00106595     0.01291794
     84      1      Pt          0.00034307     0.00101792     0.01267266
     85      1      Pt          0.00016471     0.00126899     0.01291592
     86      1      Pt         -0.00013287     0.00074948     0.01219954
     87      1      Pt          0.00013199     0.00074944     0.01219949
     88      1      Pt         -0.00016485     0.00126916     0.01291699
     89      1      Pt          0.00000108     0.00124568     0.01243288
     90      1      Pt         -0.00072247     0.00137483     0.01230823
     91      1      Pt         -0.00000006     0.00169147    -0.03105710
     92      1      Pt          0.00072251     0.00137480     0.01230854
     93      1      Pt          0.00021595     0.00123634     0.01281561
     94      1      Pt         -0.00018253     0.00211639     0.01226343
     95      1      Pt          0.00018165     0.00211635     0.01226340
     96      1      Pt         -0.00021611     0.00123651     0.01281667
     97      2      O           0.00000710    -0.00263001     0.05640472
     98      3      H          -0.00000001     0.00350741     0.00049825
     99      3      H          -0.00000000    -0.00180782    -0.00722595
 SUM OF ATOMIC FORCES           0.00000718    -0.00006556     0.00172172     0.00172298

 -------------------------------------------------------------------------------
 -                                                                             -
 -                                DBCSR STATISTICS                             -
 -                                                                             -
 -------------------------------------------------------------------------------
 COUNTER                                    TOTAL       BLAS       SMM       ACC
 flops     5 x    24 x     5                 4800       0.0%    100.0%      0.0%
 flops     5 x    24 x    13                 6240       0.0%    100.0%      0.0%
 flops    13 x    24 x     5                 6240       0.0%    100.0%      0.0%
 flops    13 x    24 x    13                 8112       0.0%    100.0%      0.0%
 flops     5 x    22 x     5                26400       0.0%    100.0%      0.0%
 flops     5 x    22 x    13                34320       0.0%    100.0%      0.0%
 flops    13 x    22 x     5                34320       0.0%    100.0%      0.0%
 flops    13 x    22 x    13                44616       0.0%    100.0%      0.0%
 flops     5 x    13 x    96               149760       0.0%    100.0%      0.0%
 flops    13 x     5 x    96               149760       0.0%    100.0%      0.0%
 flops     5 x     5 x    96               172800       0.0%    100.0%      0.0%
 flops     5 x    13 x   120               187200       0.0%    100.0%      0.0%
 flops    13 x     5 x   120               187200       0.0%    100.0%      0.0%
 flops     5 x     5 x   120               216000       0.0%    100.0%      0.0%
 flops    13 x    13 x    96               389376       0.0%    100.0%      0.0%
 flops    13 x    13 x   120               486720       0.0%    100.0%      0.0%
 flops     5 x    32 x     5               691200       0.0%    100.0%      0.0%
 flops     5 x    24 x    20               883200       0.0%    100.0%      0.0%
 flops    20 x    24 x     5               883200       0.0%    100.0%      0.0%
 flops     5 x    32 x    13               898560       0.0%    100.0%      0.0%
 flops    13 x    32 x     5               898560       0.0%    100.0%      0.0%
 flops    20 x    24 x    13               948480       0.0%    100.0%      0.0%
 flops    13 x    24 x    20               948480       0.0%    100.0%      0.0%
 flops    13 x    32 x    13              1168128       0.0%    100.0%      0.0%
 flops     5 x    13 x   128              1198080       0.0%    100.0%      0.0%
 flops    13 x     5 x   128              1198080       0.0%    100.0%      0.0%
 flops     5 x     5 x   128              1382400       0.0%    100.0%      0.0%
 flops    13 x    13 x   128              3115008       0.0%    100.0%      0.0%
 flops     5 x    22 x    20              4857600       0.0%    100.0%      0.0%
 flops    20 x    22 x     5              4857600       0.0%    100.0%      0.0%
 flops    20 x    22 x    13              5216640       0.0%    100.0%      0.0%
 flops    13 x    22 x    20              5216640       0.0%    100.0%      0.0%
 flops     5 x    20 x    96             20966400       0.0%    100.0%      0.0%
 flops    20 x     5 x    96             21427200       0.0%    100.0%      0.0%
 flops    20 x    13 x    96             22164480       0.0%    100.0%      0.0%
 flops    13 x    20 x    96             23362560       0.0%    100.0%      0.0%
 flops     5 x    20 x   120             26208000       0.0%    100.0%      0.0%
 flops    20 x     5 x   120             26784000       0.0%    100.0%      0.0%
 flops    20 x    13 x   120             27705600       0.0%    100.0%      0.0%
 flops    13 x    20 x   120             29203200       0.0%    100.0%      0.0%
 flops    20 x    32 x     5            127180800       0.0%    100.0%      0.0%
 flops     5 x    32 x    20            127180800       0.0%    100.0%      0.0%
 flops    20 x    32 x    13            136581120       0.0%    100.0%      0.0%
 flops    13 x    32 x    20            136581120       0.0%    100.0%      0.0%
 flops     5 x    20 x   128            167731200       0.0%    100.0%      0.0%
 flops    20 x     5 x   128            171417600       0.0%    100.0%      0.0%
 flops    20 x    24 x    20            176947200       0.0%    100.0%      0.0%
 flops    20 x    13 x   128            177315840       0.0%    100.0%      0.0%
 flops    13 x    20 x   128            186900480       0.0%    100.0%      0.0%
 flops    20 x    22 x    20            973209600       0.0%    100.0%      0.0%
 flops    20 x    20 x    96           4290969600       0.0%    100.0%      0.0%
 flops    20 x    20 x   120           5363712000       0.0%    100.0%      0.0%
 flops    20 x    32 x    20          25480396800       0.0%    100.0%      0.0%
 flops    20 x    20 x   128          34327756800       0.0%    100.0%      0.0%
 flops inhomo. stacks                           0       0.0%      0.0%      0.0%
 flops total                        72.078168E+09       0.0%    100.0%      0.0%
 flops max/rank                      2.468365E+09       0.0%    100.0%      0.0%
 matmuls inhomo. stacks                         0       0.0%      0.0%      0.0%
 matmuls total                            1593187       0.0%    100.0%      0.0%
 number of processed stacks                 12147       0.0%    100.0%      0.0%
 average stack size                                     0.0     131.2       0.0
 marketing flops                    74.206290E+09
 -------------------------------------------------------------------------------
 # multiplications                             19
 max memory usage/rank             331.460608E+06
 # max total images/rank                        2
 # max 3D layers                                1
 # MPI messages exchanged                    7904
 MPI messages size (bytes):
  total size                         3.479064E+09
  min size                          61.440000E+03
  max size                         985.352000E+03
  average size                     440.165000E+03
 MPI breakdown and total messages size (bytes):
             size <=      128                   0                        0
       128 < size <=     8192                   0                        0
      8192 < size <=    32768                   0                        0
     32768 < size <=   131072                1152                122548896
    131072 < size <=  4194304                6752               3356515016
   4194304 < size <= 16777216                   0                        0
  16777216 < size                               0                        0
 -------------------------------------------------------------------------------

 *** WARNING in dbcsr_mm.F:295 :: Using a non-square number of MPI ranks ***
 *** might lead to poor performance. Used ranks: 32 Suggested: 36 64     ***

 -------------------------------------------------------------------------------
 -                                                                             -
 -                      DBCSR MESSAGE PASSING PERFORMANCE                      -
 -                                                                             -
 -------------------------------------------------------------------------------
 ROUTINE             CALLS      AVE VOLUME [Bytes]
 MP_Group               19
 MP_Bcast               55                     12.
 MP_Allreduce          230                     17.
 MP_Alltoall           471                 225700.
 MP_Wait              1216
 MP_ISend              608                 193157.
 MP_IRecv              608                 189546.
 MP_Memory            1780
 -------------------------------------------------------------------------------

 MEMORY| Estimated peak process memory [MiB]                                 317

 -------------------------------------------------------------------------------
 ----                             MULTIGRID INFO                            ----
 -------------------------------------------------------------------------------
 count for grid        1:         253301          cutoff [a.u.]          200.00
 count for grid        2:         270206          cutoff [a.u.]           66.67
 count for grid        3:         158169          cutoff [a.u.]           22.22
 count for grid        4:         114292          cutoff [a.u.]            7.41
 total gridlevel count  :         795968

 -------------------------------------------------------------------------------
 -                                                                             -
 -                         MESSAGE PASSING PERFORMANCE                         -
 -                                                                             -
 -------------------------------------------------------------------------------

 ROUTINE             CALLS      AVE VOLUME [Bytes]
 MP_Group                4
 MP_Bcast             2270                 253216.
 MP_Allreduce         2304                   4602.
 MP_Sync                 5
 MP_Alltoall           259                8947758.
 MP_SendRecv         57784                 169369.
 MP_ISendRecv         1364                  66000.
 MP_Wait              3380
 MP_ISend             1824                 187681.
 MP_IRecv             1824                 187681.
 MP_Recv                60                 497408.
 MP_Write_All            3                1119280.
 -------------------------------------------------------------------------------


 -------------------------------------------------------------------------------
 -                                                                             -
 -                           R E F E R E N C E S                               -
 -                                                                             -
 -------------------------------------------------------------------------------
 
 CP2K version 7.1, the CP2K developers group (2019).
 CP2K is freely available from https://www.cp2k.org/ .

 Schuett, Ole; Messmer, Peter; Hutter, Juerg; VandeVondele, Joost. 
 Electronic Structure Calculations on Graphics Processing Units, John
 Wiley & Sons, Ltd, 173-190 (2016). 
 GPU-Accelerated Sparse Matrix-Matrix Multiplication for
 Linear Scaling Density Functional Theory.
 https://dx.doi.org/10.1002/9781118670712.ch8

 Borstnik, U; VandeVondele, J; Weber, V; Hutter, J. 
 PARALLEL COMPUTING, 40 (5-6), 47-58 (2014). 
 Sparse matrix multiplication: The distributed block-compressed sparse
 row library.
 https://dx.doi.org/10.1016/j.parco.2014.03.012

 Hutter, J; Iannuzzi, M; Schiffmann, F; VandeVondele, J. 
 WIREs Comput Mol Sci., 4 (1), 15-25 (2014). 
 CP2K: atomistic simulations of condensed matter systems.
 https://dx.doi.org/10.1002/wcms.1159

 Marek, A; Blum, V; Johanni, R; Havu, V; Lang, B; Auckenthaler, T;
 Heinecke, A; Bungartz, H; Lederer, H. 
 Journal of Physics: Condensed Matter, 26 (21), (2014). 
 The ELPA library: scalable parallel eigenvalue solutions for
 electronic structure
 theory and computational science.
 https://dx.doi.org/10.1088/0953-8984/26/21/213201

 Grimme, S; Ehrlich, S; Goerigk, L. 
 JOURNAL OF COMPUTATIONAL CHEMISTRY, 32, 1456 (2011). 
 Effect of the damping function in dispersion corrected density functional theory.
 https://dx.doi.org/10.1002/jcc.21759

 Grimme, S; Antony, J; Ehrlich, S; Krieg, H. 
 JOURNAL OF CHEMICAL PHYSICS, 132 (15), 154104 (2010). 
 A consistent and accurate ab initio parametrization of density
 functional dispersion correction (DFT-D) for the 94 elements H-Pu.
 https://dx.doi.org/10.1063/1.3382344

 VandeVondele, J; Hutter, J. 
 JOURNAL OF CHEMICAL PHYSICS, 127 (11), 114105 (2007). 
 Gaussian basis sets for accurate calculations on molecular systems in
 gas and condensed phases.
 https://dx.doi.org/10.1063/1.2770708

 Krack, M. 
 THEORETICAL CHEMISTRY ACCOUNTS, 114 (1-3), 145-152 (2005). 
 Pseudopotentials for H to Kr optimized for gradient-corrected
 exchange-correlation functionals.
 https://dx.doi.org/10.1007/s00214-005-0655-y

 VandeVondele, J; Krack, M; Mohamed, F; Parrinello, M; Chassaing, T;
 Hutter, J. COMPUTER PHYSICS COMMUNICATIONS, 167 (2), 103-128 (2005). 
 QUICKSTEP: Fast and accurate density functional calculations using a
 mixed Gaussian and plane waves approach.
 https://dx.doi.org/10.1016/j.cpc.2004.12.014

 Frigo, M; Johnson, SG. 
 PROCEEDINGS OF THE IEEE, 93 (2), 216-231 (2005). 
 The design and implementation of FFTW3.
 https://dx.doi.org/10.1109/JPROC.2004.840301

 Hartwigsen, C; Goedecker, S; Hutter, J. 
 PHYSICAL REVIEW B, 58 (7), 3641-3662 (1998). 
 Relativistic separable dual-space Gaussian pseudopotentials from H to Rn.
 https://dx.doi.org/10.1103/PhysRevB.58.3641

 Lippert, G; Hutter, J; Parrinello, M. 
 MOLECULAR PHYSICS, 92 (3), 477-487 (1997). 
 A hybrid Gaussian and plane wave density functional scheme.
 https://dx.doi.org/10.1080/002689797170220

 Perdew, JP; Burke, K; Ernzerhof, M. 
 PHYSICAL REVIEW LETTERS, 77 (18), 3865-3868 (1996). 
 Generalized gradient approximation made simple.
 https://dx.doi.org/10.1103/PhysRevLett.77.3865

 Goedecker, S; Teter, M; Hutter, J. 
 PHYSICAL REVIEW B, 54 (3), 1703-1710 (1996). 
 Separable dual-space Gaussian pseudopotentials.
 https://dx.doi.org/10.1103/PhysRevB.54.1703


 -------------------------------------------------------------------------------
 -                                                                             -
 -                                T I M I N G                                  -
 -                                                                             -
 -------------------------------------------------------------------------------
 SUBROUTINE                       CALLS  ASD         SELF TIME        TOTAL TIME
                                MAXIMUM       AVERAGE  MAXIMUM  AVERAGE  MAXIMUM
 CP2K                                 1  1.0    0.012    0.021   93.875   93.880
 qs_forces                            1  2.0    0.000    0.000   93.355   93.358
 qs_energies                          1  3.0    0.016    0.017   90.566   90.569
 scf_post_calculation_gpw             1  4.0    0.000    0.000   57.318   57.320
 get_localization_info                1  5.0    0.000    0.000   56.324   56.333
 qs_loc_driver                        1  6.0    0.000    0.000   56.324   56.333
 optimize_loc_berry                   1  7.0    0.016    0.017   56.310   56.311
 jacobi_rot_para                      1  8.0   44.807   47.625   56.221   56.222
 scf_env_do_scf                       1  4.0    0.000    0.000   31.619   31.629
 scf_env_do_scf_inner_loop           10  5.0    0.038    0.041   31.616   31.626
 gspace_mixing                        9  6.0    0.013    0.031   18.280   18.298
 broyden_mixing                       9  7.0   17.950   17.967   17.967   17.974
 mp_allgather_d23                 28830  9.0    7.706   11.142    7.706   11.142
 rebuild_ks_matrix                   11  6.7    0.000    0.000    8.591    8.593
 qs_ks_build_kohn_sham_matrix        11  7.7    0.002    0.002    8.591    8.593
 qs_ks_update_qs_env                 10  6.0    0.000    0.000    7.685    7.686
 pw_transfer                        220 10.3    0.012    0.012    4.537    4.582
 fft_wrap_pw1pw2                    198 11.3    0.002    0.002    4.478    4.525
 fft_wrap_pw1pw2_200                132 12.3    0.359    0.383    4.277    4.337
 sum_up_and_integrate                11  8.7    0.011    0.016    4.277    4.281
 integrate_v_rspace                  11  9.7    1.967    3.304    4.266    4.271
 qs_rho_update_rho                   11  6.0    0.000    0.000    4.252    4.253
 calculate_rho_elec                  11  7.0    1.810    3.002    4.252    4.253
 qs_vxc_create                       11  8.7    0.000    0.003    3.724    3.747
 xc_vxc_pw_create                    11  9.7    0.043    0.052    3.724    3.747
 fft3d_ps                           198 13.3    2.155    2.371    3.336    3.403
 mp_sendrecv_zm3                  28830  9.0    2.806    3.377    2.806    3.377
 density_rs2pw                       11  8.0    0.001    0.001    2.293    2.825
 rs_pw_transfer                      92 10.2    0.001    0.001    2.034    2.583
 xc_rho_set_and_dset_create          11 10.7    0.015    0.017    1.984    2.107
 rs_pw_transfer_RS2PW_200            13  9.8    0.159    0.209    1.445    1.994
 mp_alltoall_d11v                   225 10.7    1.405    1.973    1.405    1.973
 rs_distribute_matrix                23  9.3    0.020    0.052    1.412    1.963
 mp_waitany                        1824 12.1    1.366    1.942    1.366    1.942
 -------------------------------------------------------------------------------

 The number of warnings for this run is : 1
 
 -------------------------------------------------------------------------------
  **** **** ******  **  PROGRAM ENDED AT                 2024-11-01 21:51:43.010
 ***** ** ***  *** **   PROGRAM RAN ON                                   c53-012
 **    ****   ******    PROGRAM RAN BY                                     jxzhu
 ***** **    ** ** **   PROGRAM PROCESS ID                                255142
  **** **  *******  **  PROGRAM STOPPED IN /data/jxzhu/nnp/dp_workdir/d1f764b96e
                                           9a01b62c3e35b0c4f5198f3ba3ed59/calc.0
                                           01/task.000.000001
