 DBCSR| CPU Multiplication driver                                           XSMM
 DBCSR| Multrec recursion limit                                              512
 DBCSR| Multiplication stack size                                           1000
 DBCSR| Maximum elements for images                                    UNLIMITED
 DBCSR| Multiplicative factor virtual images                                   1
 DBCSR| Use multiplication densification                                       T
 DBCSR| Multiplication size stacks                                             3
 DBCSR| Number of 3D layers                                               SINGLE
 DBCSR| Use MPI memory allocation                                              T
 DBCSR| Use RMA algorithm                                                      F
 DBCSR| Use Communication thread                                               T
 DBCSR| Communication thread load                                             87


  **** **** ******  **  PROGRAM STARTED AT               2024-11-01 22:12:45.783
 ***** ** ***  *** **   PROGRAM STARTED ON                               c53-012
 **    ****   ******    PROGRAM STARTED BY                                 jxzhu
 ***** **    ** ** **   PROGRAM PROCESS ID                                257355
  **** **  *******  **  PROGRAM STARTED IN /data/jxzhu/nnp/dp_workdir/d1f764b96e
                                           9a01b62c3e35b0c4f5198f3ba3ed59/calc.0
                                           01/task.002.000003

 CP2K| version string:                                          CP2K version 7.1
 CP2K| source code revision number:                                  git:e635599
 CP2K| cp2kflags: libint fftw3 libxc elpa parallel mpi3 scalapack xsmm spglib   
 CP2K| is freely available from                            https://www.cp2k.org/
 CP2K| Program compiled at                           Mon Mar 8 20:53:19 CST 2021
 CP2K| Program compiled on                                                 mgt01
 CP2K| Program compiled for                                                local
 CP2K| Data directory path                                    /data/jxzhu/basis/
 CP2K| Input file name                                                 input.inp

 GLOBAL| Force Environment number                                              1
 GLOBAL| Basis set file name                                        BASIS_MOLOPT
 GLOBAL| Potential file name                                      GTH_POTENTIALS
 GLOBAL| MM Potential file name                                     MM_POTENTIAL
 GLOBAL| Coordinate file name                                          coord.xyz
 GLOBAL| Method name                                                        CP2K
 GLOBAL| Project name                                                       cp2k
 GLOBAL| Preferred FFT library                                             FFTW3
 GLOBAL| Preferred diagonalization lib.                                     ELPA
 GLOBAL| Run type                                                   ENERGY_FORCE
 GLOBAL| All-to-all communication in single precision                          F
 GLOBAL| FFTs using library dependent lengths                                  F
 GLOBAL| Global print level                                               MEDIUM
 GLOBAL| MPI I/O enabled                                                       T
 GLOBAL| Total number of message passing processes                            32
 GLOBAL| Number of threads for this process                                    1
 GLOBAL| This output is from process                                           0
 GLOBAL| CPU model name                Intel(R) Xeon(R) Gold 6226R CPU @ 2.90GHz
 GLOBAL| CPUID                                                              1003
 GLOBAL| Compiled for CPUID                                                 1002
 HINT in environment.F:814 The compiler target flags (x86_avx2) used to build
   this binary cannot exploit all extensions of this CPU model (x86_avx512).
   Consider compiler target flags as part of FCFLAGS and CFLAGS (ARCH file).

 MEMORY| system memory details [Kb]
 MEMORY|                        rank 0           min           max       average
 MEMORY| MemTotal            196472820     196472820     196472820     196472820
 MEMORY| MemFree             182930748     182930748     182930748     182930748
 MEMORY| Buffers                  2196          2196          2196          2196
 MEMORY| Cached                 800496        800496        800496        800496
 MEMORY| Slab                   429944        429944        429944        429944
 MEMORY| SReclaimable           136840        136840        136840        136840
 MEMORY| MemLikelyFree       183870280     183870280     183870280     183870280


 *** Fundamental physical constants (SI units) ***

 *** Literature: B. J. Mohr and B. N. Taylor,
 ***             CODATA recommended values of the fundamental physical
 ***             constants: 2006, Web Version 5.1
 ***             http://physics.nist.gov/constants

 Speed of light in vacuum [m/s]                             2.99792458000000E+08
 Magnetic constant or permeability of vacuum [N/A**2]       1.25663706143592E-06
 Electric constant or permittivity of vacuum [F/m]          8.85418781762039E-12
 Planck constant (h) [J*s]                                  6.62606896000000E-34
 Planck constant (h-bar) [J*s]                              1.05457162825177E-34
 Elementary charge [C]                                      1.60217648700000E-19
 Electron mass [kg]                                         9.10938215000000E-31
 Electron g factor [ ]                                     -2.00231930436220E+00
 Proton mass [kg]                                           1.67262163700000E-27
 Fine-structure constant                                    7.29735253760000E-03
 Rydberg constant [1/m]                                     1.09737315685270E+07
 Avogadro constant [1/mol]                                  6.02214179000000E+23
 Boltzmann constant [J/K]                                   1.38065040000000E-23
 Atomic mass unit [kg]                                      1.66053878200000E-27
 Bohr radius [m]                                            5.29177208590000E-11

 *** Conversion factors ***

 [u] -> [a.u.]                                              1.82288848426455E+03
 [Angstrom] -> [Bohr] = [a.u.]                              1.88972613288564E+00
 [a.u.] = [Bohr] -> [Angstrom]                              5.29177208590000E-01
 [a.u.] -> [s]                                              2.41888432650478E-17
 [a.u.] -> [fs]                                             2.41888432650478E-02
 [a.u.] -> [J]                                              4.35974393937059E-18
 [a.u.] -> [N]                                              8.23872205491840E-08
 [a.u.] -> [K]                                              3.15774647902944E+05
 [a.u.] -> [kJ/mol]                                         2.62549961709828E+03
 [a.u.] -> [kcal/mol]                                       6.27509468713739E+02
 [a.u.] -> [Pa]                                             2.94210107994716E+13
 [a.u.] -> [bar]                                            2.94210107994716E+08
 [a.u.] -> [atm]                                            2.90362800883016E+08
 [a.u.] -> [eV]                                             2.72113838565563E+01
 [a.u.] -> [Hz]                                             6.57968392072181E+15
 [a.u.] -> [1/cm] (wave numbers)                            2.19474631370540E+05
 [a.u./Bohr**2] -> [1/cm]                                   5.14048714338585E+03
 

 CELL_TOP| Volume [angstrom^3]:                                         4542.849
 CELL_TOP| Vector a [angstrom    11.246     0.000     0.000    |a| =      11.246
 CELL_TOP| Vector b [angstrom     0.000     9.739     0.000    |b| =       9.739
 CELL_TOP| Vector c [angstrom     0.000     0.000    41.478    |c| =      41.478
 CELL_TOP| Angle (b,c), alpha [degree]:                                   90.000
 CELL_TOP| Angle (a,c), beta  [degree]:                                   90.000
 CELL_TOP| Angle (a,b), gamma [degree]:                                   90.000
 CELL_TOP| Numerically orthorhombic:                                         YES

 GENERATE|  Preliminary Number of Bonds generated:                             0
 GENERATE|  Achieved consistency in connectivity generation.

 CELL| Volume [angstrom^3]:                                             4542.849
 CELL| Vector a [angstrom]:      11.246     0.000     0.000    |a| =      11.246
 CELL| Vector b [angstrom]:       0.000     9.739     0.000    |b| =       9.739
 CELL| Vector c [angstrom]:       0.000     0.000    41.478    |c| =      41.478
 CELL| Angle (b,c), alpha [degree]:                                       90.000
 CELL| Angle (a,c), beta  [degree]:                                       90.000
 CELL| Angle (a,b), gamma [degree]:                                       90.000
 CELL| Numerically orthorhombic:                                             YES

 CELL_REF| Volume [angstrom^3]:                                         4542.849
 CELL_REF| Vector a [angstrom    11.246     0.000     0.000    |a| =      11.246
 CELL_REF| Vector b [angstrom     0.000     9.739     0.000    |b| =       9.739
 CELL_REF| Vector c [angstrom     0.000     0.000    41.478    |c| =      41.478
 CELL_REF| Angle (b,c), alpha [degree]:                                   90.000
 CELL_REF| Angle (a,c), beta  [degree]:                                   90.000
 CELL_REF| Angle (a,b), gamma [degree]:                                   90.000
 CELL_REF| Numerically orthorhombic:                                         YES

 *******************************************************************************
 *******************************************************************************
 **                                                                           **
 **     #####                         ##              ##                      **
 **    ##   ##            ##          ##              ##                      **
 **   ##     ##                       ##            ######                    **
 **   ##     ##  ##   ##  ##   #####  ##  ##   ####   ##    #####    #####    **
 **   ##     ##  ##   ##  ##  ##      ## ##   ##      ##   ##   ##  ##   ##   **
 **   ##  ## ##  ##   ##  ##  ##      ####     ###    ##   ######   ######    **
 **    ##  ###   ##   ##  ##  ##      ## ##      ##   ##   ##       ##        **
 **     #######   #####   ##   #####  ##  ##  ####    ##    #####   ##        **
 **           ##                                                    ##        **
 **                                                                           **
 **                                                ... make the atoms dance   **
 **                                                                           **
 **            Copyright (C) by CP2K developers group (2000 - 2019)           **
 **                                                                           **
 *******************************************************************************

 DFT| Spin restricted Kohn-Sham (RKS) calculation                            RKS
 DFT| Multiplicity                                                             1
 DFT| Number of spin states                                                    1
 DFT| Charge                                                                   0
 DFT| Self-interaction correction (SIC)                                       NO
 DFT| Cutoffs: density                                              1.000000E-10
 DFT|          gradient                                             1.000000E-10
 DFT|          tau                                                  1.000000E-10
 DFT|          cutoff_smoothing_range                               0.000000E+00
 DFT| XC density smoothing                                                  NONE
 DFT| XC derivatives                                                          PW
 FUNCTIONAL| ROUTINE=NEW
 FUNCTIONAL| PBE:
 FUNCTIONAL| J.P.Perdew, K.Burke, M.Ernzerhof, Phys. Rev. Letter, vol. 77, n 18,
 FUNCTIONAL|  pp. 3865-3868, (1996){spin unpolarized}                           
 vdW POTENTIAL|                                                   Pair Potential
 vdW POTENTIAL|          DFT-D3 (Version 3.1)
 vdW POTENTIAL|          Potential Form: S. Grimme et al, JCP 132: 154104 (2010)
 vdW POTENTIAL|          Zero Damping
 vdW POTENTIAL|          Cutoff Radius [Bohr]:                             20.00
 vdW POTENTIAL|          s6 Scaling Factor:                               1.0000
 vdW POTENTIAL|          sr6 Scaling Factor:                              1.2170
 vdW POTENTIAL|          s8 Scaling Factor:                               0.7220
 vdW POTENTIAL|          Cutoff for CN calculation:                   0.1000E-05

 QS| Method:                                                                 GPW
 QS| Density plane wave grid type                        NON-SPHERICAL FULLSPACE
 QS| Number of grid levels:                                                    4
 QS| Density cutoff [a.u.]:                                                200.0
 QS| Multi grid cutoff [a.u.]: 1) grid level                               200.0
 QS|                           2) grid level                                66.7
 QS|                           3) grid level                                22.2
 QS|                           4) grid level                                 7.4
 QS| Grid level progression factor:                                          3.0
 QS| Relative density cutoff [a.u.]:                                        20.0
 QS| Consistent realspace mapping and integration 
 QS| Interaction thresholds: eps_pgf_orb:                                3.2E-07
 QS|                         eps_filter_matrix:                          0.0E+00
 QS|                         eps_core_charge:                            1.0E-15
 QS|                         eps_rho_gspace:                             1.0E-13
 QS|                         eps_rho_rspace:                             1.0E-13
 QS|                         eps_gvg_rspace:                             3.2E-07
 QS|                         eps_ppl:                                    1.0E-02
 QS|                         eps_ppnl:                                   3.2E-09


 ATOMIC KIND INFORMATION

  1. Atomic kind: Pt                                    Number of atoms:      96

     Orbital Basis Set                      DZVP-A5-Q10-323-MOL-T1-DERIVED_SET-1

       Number of orbital shell sets:                                           1
       Number of orbital shells:                                               6
       Number of primitive Cartesian functions:                                5
       Number of Cartesian basis functions:                                   23
       Number of spherical basis functions:                                   20
       Norm type:                                                              2

       Normalised Cartesian orbitals:

                        Set   Shell   Orbital            Exponent    Coefficient

                          1       1    2s                2.521825       0.177473
                                                         1.453920      -0.063399
                                                         0.614053      -0.407089
                                                         0.232656       0.262254
                                                         0.074788       0.047371

                          1       2    3s                2.521825      -0.049056
                                                         1.453920       0.044904
                                                         0.614053      -0.009756
                                                         0.232656      -0.144709
                                                         0.074788       0.144085

                          1       3    3px               2.521825      -0.317572
                                                         1.453920       0.534826
                                                         0.614053      -0.489458
                                                         0.232656       0.245631
                                                         0.074788       0.018221
                          1       3    3py               2.521825      -0.317572
                                                         1.453920       0.534826
                                                         0.614053      -0.489458
                                                         0.232656       0.245631
                                                         0.074788       0.018221
                          1       3    3pz               2.521825      -0.317572
                                                         1.453920       0.534826
                                                         0.614053      -0.489458
                                                         0.232656       0.245631
                                                         0.074788       0.018221

                          1       4    4dx2              2.521825       3.008522
                                                         1.453920      -1.224251
                                                         0.614053       0.225691
                                                         0.232656       0.125144
                                                         0.074788      -0.015348
                          1       4    4dxy              2.521825       5.210912
                                                         1.453920      -2.120465
                                                         0.614053       0.390909
                                                         0.232656       0.216756
                                                         0.074788      -0.026584
                          1       4    4dxz              2.521825       5.210912
                                                         1.453920      -2.120465
                                                         0.614053       0.390909
                                                         0.232656       0.216756
                                                         0.074788      -0.026584
                          1       4    4dy2              2.521825       3.008522
                                                         1.453920      -1.224251
                                                         0.614053       0.225691
                                                         0.232656       0.125144
                                                         0.074788      -0.015348
                          1       4    4dyz              2.521825       5.210912
                                                         1.453920      -2.120465
                                                         0.614053       0.390909
                                                         0.232656       0.216756
                                                         0.074788      -0.026584
                          1       4    4dz2              2.521825       3.008522
                                                         1.453920      -1.224251
                                                         0.614053       0.225691
                                                         0.232656       0.125144
                                                         0.074788      -0.015348

                          1       5    5dx2              2.521825       0.698026
                                                         1.453920      -1.511486
                                                         0.614053      -0.335394
                                                         0.232656      -0.025564
                                                         0.074788      -0.002699
                          1       5    5dxy              2.521825       1.209017
                                                         1.453920      -2.617970
                                                         0.614053      -0.580920
                                                         0.232656      -0.044277
                                                         0.074788      -0.004674
                          1       5    5dxz              2.521825       1.209017
                                                         1.453920      -2.617970
                                                         0.614053      -0.580920
                                                         0.232656      -0.044277
                                                         0.074788      -0.004674
                          1       5    5dy2              2.521825       0.698026
                                                         1.453920      -1.511486
                                                         0.614053      -0.335394
                                                         0.232656      -0.025564
                                                         0.074788      -0.002699
                          1       5    5dyz              2.521825       1.209017
                                                         1.453920      -2.617970
                                                         0.614053      -0.580920
                                                         0.232656      -0.044277
                                                         0.074788      -0.004674
                          1       5    5dz2              2.521825       0.698026
                                                         1.453920      -1.511486
                                                         0.614053      -0.335394
                                                         0.232656      -0.025564
                                                         0.074788      -0.002699

                          1       6    6dx2              2.521825       0.831079
                                                         1.453920      -0.709226
                                                         0.614053      -0.137351
                                                         0.232656       0.068642
                                                         0.074788       0.011745
                          1       6    6dxy              2.521825       1.439472
                                                         1.453920      -1.228415
                                                         0.614053      -0.237899
                                                         0.232656       0.118891
                                                         0.074788       0.020343
                          1       6    6dxz              2.521825       1.439472
                                                         1.453920      -1.228415
                                                         0.614053      -0.237899
                                                         0.232656       0.118891
                                                         0.074788       0.020343
                          1       6    6dy2              2.521825       0.831079
                                                         1.453920      -0.709226
                                                         0.614053      -0.137351
                                                         0.232656       0.068642
                                                         0.074788       0.011745
                          1       6    6dyz              2.521825       1.439472
                                                         1.453920      -1.228415
                                                         0.614053      -0.237899
                                                         0.232656       0.118891
                                                         0.074788       0.020343
                          1       6    6dz2              2.521825       0.831079
                                                         1.453920      -0.709226
                                                         0.614053      -0.137351
                                                         0.232656       0.068642
                                                         0.074788       0.011745

     GTH Potential information for                                   GTH-PBE-q10

       Description:                       Goedecker-Teter-Hutter pseudopotential
                                           Goedecker et al., PRB 54, 1703 (1996)
                                          Hartwigsen et al., PRB 58, 3641 (1998)
                                                      Krack, TCA 114, 145 (2005)

       Gaussian exponent of the core charge distribution:               1.317676
       Electronic configuration (s p d ...):                           1   0   9

       Parameters of the local part of the GTH pseudopotential:

                          rloc        C1          C2          C3          C4
                        0.616000   11.313635

       Parameters of the non-local part of the GTH pseudopotential:

                   l      r(l)      h(i,j,l)

                   0    0.550904    4.733491   -1.784594
                                   -1.784594    2.303901
                   1    0.674138    2.534798   -1.778066
                                   -1.778066    2.103836
                   2    0.457392   -7.264011    2.558665
                                    2.558665   -2.901253

  2. Atomic kind: O                                     Number of atoms:       1

     Orbital Basis Set                                        DZVP-MOLOPT-SR-GTH

       Number of orbital shell sets:                                           1
       Number of orbital shells:                                               5
       Number of primitive Cartesian functions:                                5
       Number of Cartesian basis functions:                                   14
       Number of spherical basis functions:                                   13
       Norm type:                                                              2

       Normalised Cartesian orbitals:

                        Set   Shell   Orbital            Exponent    Coefficient

                          1       1    2s               10.389228       0.396646
                                                         3.849621       0.208811
                                                         1.388401      -0.301641
                                                         0.496955      -0.274061
                                                         0.162492      -0.033677

                          1       2    3s               10.389228       0.303673
                                                         3.849621       0.240943
                                                         1.388401      -0.313066
                                                         0.496955      -0.043055
                                                         0.162492       0.213991

                          1       3    3px              10.389228      -1.530415
                                                         3.849621      -1.371928
                                                         1.388401      -0.761951
                                                         0.496955      -0.253695
                                                         0.162492      -0.035541
                          1       3    3py              10.389228      -1.530415
                                                         3.849621      -1.371928
                                                         1.388401      -0.761951
                                                         0.496955      -0.253695
                                                         0.162492      -0.035541
                          1       3    3pz              10.389228      -1.530415
                                                         3.849621      -1.371928
                                                         1.388401      -0.761951
                                                         0.496955      -0.253695
                                                         0.162492      -0.035541

                          1       4    4px              10.389228      -0.565392
                                                         3.849621      -0.038231
                                                         1.388401      -0.382373
                                                         0.496955       0.179070
                                                         0.162492       0.122714
                          1       4    4py              10.389228      -0.565392
                                                         3.849621      -0.038231
                                                         1.388401      -0.382373
                                                         0.496955       0.179070
                                                         0.162492       0.122714
                          1       4    4pz              10.389228      -0.565392
                                                         3.849621      -0.038231
                                                         1.388401      -0.382373
                                                         0.496955       0.179070
                                                         0.162492       0.122714

                          1       5    4dx2             10.389228       1.867377
                                                         3.849621       0.670994
                                                         1.388401       1.353441
                                                         0.496955       0.273538
                                                         0.162492       0.006620
                          1       5    4dxy             10.389228       3.234392
                                                         3.849621       1.162195
                                                         1.388401       2.344229
                                                         0.496955       0.473781
                                                         0.162492       0.011466
                          1       5    4dxz             10.389228       3.234392
                                                         3.849621       1.162195
                                                         1.388401       2.344229
                                                         0.496955       0.473781
                                                         0.162492       0.011466
                          1       5    4dy2             10.389228       1.867377
                                                         3.849621       0.670994
                                                         1.388401       1.353441
                                                         0.496955       0.273538
                                                         0.162492       0.006620
                          1       5    4dyz             10.389228       3.234392
                                                         3.849621       1.162195
                                                         1.388401       2.344229
                                                         0.496955       0.473781
                                                         0.162492       0.011466
                          1       5    4dz2             10.389228       1.867377
                                                         3.849621       0.670994
                                                         1.388401       1.353441
                                                         0.496955       0.273538
                                                         0.162492       0.006620

     GTH Potential information for                                    GTH-PBE-q6

       Description:                       Goedecker-Teter-Hutter pseudopotential
                                           Goedecker et al., PRB 54, 1703 (1996)
                                          Hartwigsen et al., PRB 58, 3641 (1998)
                                                      Krack, TCA 114, 145 (2005)

       Gaussian exponent of the core charge distribution:               8.360253
       Electronic configuration (s p d ...):                               2   4

       Parameters of the local part of the GTH pseudopotential:

                          rloc        C1          C2          C3          C4
                        0.244554  -16.667215    2.487311

       Parameters of the non-local part of the GTH pseudopotential:

                   l      r(l)      h(i,j,l)

                   0    0.220956   18.337458
                   1    0.211332

  3. Atomic kind: H                                     Number of atoms:       2

     Orbital Basis Set                                        DZVP-MOLOPT-SR-GTH

       Number of orbital shell sets:                                           1
       Number of orbital shells:                                               3
       Number of primitive Cartesian functions:                                5
       Number of Cartesian basis functions:                                    5
       Number of spherical basis functions:                                    5
       Norm type:                                                              2

       Normalised Cartesian orbitals:

                        Set   Shell   Orbital            Exponent    Coefficient

                          1       1    2s               10.068468      -0.133023
                                                         2.680223      -0.177618
                                                         0.791502      -0.258419
                                                         0.239116      -0.107525
                                                         0.082193      -0.014019

                          1       2    3s               10.068468       0.344673
                                                         2.680223       1.819821
                                                         0.791502      -0.999069
                                                         0.239116       0.017430
                                                         0.082193       0.082660

                          1       3    3px              10.068468       0.155326
                                                         2.680223       0.367157
                                                         0.791502       0.311480
                                                         0.239116       0.080105
                                                         0.082193       0.033440
                          1       3    3py              10.068468       0.155326
                                                         2.680223       0.367157
                                                         0.791502       0.311480
                                                         0.239116       0.080105
                                                         0.082193       0.033440
                          1       3    3pz              10.068468       0.155326
                                                         2.680223       0.367157
                                                         0.791502       0.311480
                                                         0.239116       0.080105
                                                         0.082193       0.033440

     GTH Potential information for                                    GTH-PBE-q1

       Description:                       Goedecker-Teter-Hutter pseudopotential
                                           Goedecker et al., PRB 54, 1703 (1996)
                                          Hartwigsen et al., PRB 58, 3641 (1998)
                                                      Krack, TCA 114, 145 (2005)

       Gaussian exponent of the core charge distribution:              12.500000
       Electronic configuration (s p d ...):                                   1

       Parameters of the local part of the GTH pseudopotential:

                          rloc        C1          C2          C3          C4
                        0.200000   -4.178900    0.724463


 MOLECULE KIND INFORMATION


 All atoms are their own molecule, skipping detailed information


 TOTAL NUMBERS AND MAXIMUM NUMBERS

  Total number of            - Atomic kinds:                                   3
                             - Atoms:                                         99
                             - Shell sets:                                    99
                             - Shells:                                       587
                             - Primitive Cartesian functions:                495
                             - Cartesian basis functions:                   2232
                             - Spherical basis functions:                   1943

  Maximum angular momentum of- Orbital basis functions:                        2
                             - Local part of the GTH pseudopotential:          2
                             - Non-local part of the GTH pseudopotential:      4


 MODULE QUICKSTEP:  ATOMIC COORDINATES IN angstrom

  Atom  Kind  Element       X           Y           Z          Z(eff)       Mass

       1     1 Pt  78    1.405728    0.811598   15.000000     10.00     195.0840
       2     1 Pt  78    4.217185    0.811598   15.000000     10.00     195.0840
       3     1 Pt  78    7.028641    0.811598   15.000000     10.00     195.0840
       4     1 Pt  78    9.840098    0.811598   15.000000     10.00     195.0840
       5     1 Pt  78    0.000000    3.246390   15.000000     10.00     195.0840
       6     1 Pt  78    2.811457    3.246390   15.000000     10.00     195.0840
       7     1 Pt  78    5.622913    3.246390   15.000000     10.00     195.0840
       8     1 Pt  78    8.434370    3.246390   15.000000     10.00     195.0840
       9     1 Pt  78    1.405728    5.681183   15.000000     10.00     195.0840
      10     1 Pt  78    4.217185    5.681183   15.000000     10.00     195.0840
      11     1 Pt  78    7.028641    5.681183   15.000000     10.00     195.0840
      12     1 Pt  78    9.840098    5.681183   15.000000     10.00     195.0840
      13     1 Pt  78    0.000000    8.115976   15.000000     10.00     195.0840
      14     1 Pt  78    2.811457    8.115976   15.000000     10.00     195.0840
      15     1 Pt  78    5.622913    8.115976   15.000000     10.00     195.0840
      16     1 Pt  78    8.434370    8.115976   15.000000     10.00     195.0840
      17     1 Pt  78    0.000000    1.623195   17.295545     10.00     195.0840
      18     1 Pt  78    2.811457    1.623195   17.295545     10.00     195.0840
      19     1 Pt  78    5.622913    1.623195   17.295545     10.00     195.0840
      20     1 Pt  78    8.434370    1.623195   17.295545     10.00     195.0840
      21     1 Pt  78    1.405728    4.057988   17.295545     10.00     195.0840
      22     1 Pt  78    4.217185    4.057988   17.295545     10.00     195.0840
      23     1 Pt  78    7.028641    4.057988   17.295545     10.00     195.0840
      24     1 Pt  78    9.840098    4.057988   17.295545     10.00     195.0840
      25     1 Pt  78    0.000000    6.492781   17.295545     10.00     195.0840
      26     1 Pt  78    2.811457    6.492781   17.295545     10.00     195.0840
      27     1 Pt  78    5.622913    6.492781   17.295545     10.00     195.0840
      28     1 Pt  78    8.434370    6.492781   17.295545     10.00     195.0840
      29     1 Pt  78    1.405728    8.927574   17.295545     10.00     195.0840
      30     1 Pt  78    4.217185    8.927574   17.295545     10.00     195.0840
      31     1 Pt  78    7.028641    8.927574   17.295545     10.00     195.0840
      32     1 Pt  78    9.840098    8.927574   17.295545     10.00     195.0840
      33     1 Pt  78    0.000000    0.000000   19.591089     10.00     195.0840
      34     1 Pt  78    2.811457    0.000000   19.591089     10.00     195.0840
      35     1 Pt  78    5.622913    0.000000   19.591089     10.00     195.0840
      36     1 Pt  78    8.434370    0.000000   19.591089     10.00     195.0840
      37     1 Pt  78    1.405728    2.434793   19.591089     10.00     195.0840
      38     1 Pt  78    4.217185    2.434793   19.591089     10.00     195.0840
      39     1 Pt  78    7.028641    2.434793   19.591089     10.00     195.0840
      40     1 Pt  78    9.840098    2.434793   19.591089     10.00     195.0840
      41     1 Pt  78    0.000000    4.869586   19.591089     10.00     195.0840
      42     1 Pt  78    2.811457    4.869586   19.591089     10.00     195.0840
      43     1 Pt  78    5.622913    4.869586   19.591089     10.00     195.0840
      44     1 Pt  78    8.434370    4.869586   19.591089     10.00     195.0840
      45     1 Pt  78    1.405728    7.304378   19.591089     10.00     195.0840
      46     1 Pt  78    4.217185    7.304378   19.591089     10.00     195.0840
      47     1 Pt  78    7.028641    7.304378   19.591089     10.00     195.0840
      48     1 Pt  78    9.840098    7.304378   19.591089     10.00     195.0840
      49     1 Pt  78    1.405728    0.811598   21.886634     10.00     195.0840
      50     1 Pt  78    4.217185    0.811598   21.886634     10.00     195.0840
      51     1 Pt  78    7.028641    0.811598   21.886634     10.00     195.0840
      52     1 Pt  78    9.840098    0.811598   21.886634     10.00     195.0840
      53     1 Pt  78    0.000000    3.246390   21.886634     10.00     195.0840
      54     1 Pt  78    2.811457    3.246390   21.886634     10.00     195.0840
      55     1 Pt  78    5.622913    3.246390   21.886634     10.00     195.0840
      56     1 Pt  78    8.434370    3.246390   21.886634     10.00     195.0840
      57     1 Pt  78    1.405728    5.681183   21.886634     10.00     195.0840
      58     1 Pt  78    4.217185    5.681183   21.886634     10.00     195.0840
      59     1 Pt  78    7.028641    5.681183   21.886634     10.00     195.0840
      60     1 Pt  78    9.840098    5.681183   21.886634     10.00     195.0840
      61     1 Pt  78    0.000000    8.115976   21.886634     10.00     195.0840
      62     1 Pt  78    2.811457    8.115976   21.886634     10.00     195.0840
      63     1 Pt  78    5.622913    8.115976   21.886634     10.00     195.0840
      64     1 Pt  78    8.434370    8.115976   21.886634     10.00     195.0840
      65     1 Pt  78    0.000000    1.623195   24.182179     10.00     195.0840
      66     1 Pt  78    2.811457    1.623195   24.182179     10.00     195.0840
      67     1 Pt  78    5.622913    1.623195   24.182179     10.00     195.0840
      68     1 Pt  78    8.434370    1.623195   24.182179     10.00     195.0840
      69     1 Pt  78    1.405728    4.057988   24.182179     10.00     195.0840
      70     1 Pt  78    4.217185    4.057988   24.182179     10.00     195.0840
      71     1 Pt  78    7.028641    4.057988   24.182179     10.00     195.0840
      72     1 Pt  78    9.840098    4.057988   24.182179     10.00     195.0840
      73     1 Pt  78    0.000000    6.492781   24.182179     10.00     195.0840
      74     1 Pt  78    2.811457    6.492781   24.182179     10.00     195.0840
      75     1 Pt  78    5.622913    6.492781   24.182179     10.00     195.0840
      76     1 Pt  78    8.434370    6.492781   24.182179     10.00     195.0840
      77     1 Pt  78    1.405728    8.927574   24.182179     10.00     195.0840
      78     1 Pt  78    4.217185    8.927574   24.182179     10.00     195.0840
      79     1 Pt  78    7.028641    8.927574   24.182179     10.00     195.0840
      80     1 Pt  78    9.840098    8.927574   24.182179     10.00     195.0840
      81     1 Pt  78    0.000000    0.000000   26.477723     10.00     195.0840
      82     1 Pt  78    2.811457    0.000000   26.477723     10.00     195.0840
      83     1 Pt  78    5.622913    0.000000   26.477723     10.00     195.0840
      84     1 Pt  78    8.434370    0.000000   26.477723     10.00     195.0840
      85     1 Pt  78    1.405728    2.434793   26.477723     10.00     195.0840
      86     1 Pt  78    4.217185    2.434793   26.477723     10.00     195.0840
      87     1 Pt  78    7.028641    2.434793   26.477723     10.00     195.0840
      88     1 Pt  78    9.840098    2.434793   26.477723     10.00     195.0840
      89     1 Pt  78    0.000000    4.869586   26.477723     10.00     195.0840
      90     1 Pt  78    2.811457    4.869586   26.477723     10.00     195.0840
      91     1 Pt  78    5.622913    4.869586   26.477723     10.00     195.0840
      92     1 Pt  78    8.434370    4.869586   26.477723     10.00     195.0840
      93     1 Pt  78    1.405728    7.304378   26.477723     10.00     195.0840
      94     1 Pt  78    4.217185    7.304378   26.477723     10.00     195.0840
      95     1 Pt  78    7.028641    7.304378   26.477723     10.00     195.0840
      96     1 Pt  78    9.840098    7.304378   26.477723     10.00     195.0840
      97     2 O    8    5.622913    4.869586   32.977723      6.00      15.9994
      98     3 H    1    5.622913    5.809381   33.212038      1.00       1.0079
      99     3 H    1    5.622913    4.869585   32.009158      1.00       1.0079




 SCF PARAMETERS         Density guess:                                   RESTART
                        --------------------------------------------------------
                        max_scf:                                             500
                        max_scf_history:                                       0
                        max_diis:                                              4
                        --------------------------------------------------------
                        eps_scf:                                        1.00E-06
                        eps_scf_history:                                0.00E+00
                        eps_diis:                                       1.00E-01
                        eps_eigval:                                     1.00E-05
                        --------------------------------------------------------
                        level_shift [a.u.]:                                 0.00
                        added MOs                                       500    0
                        --------------------------------------------------------
                        Mixing method:                            BROYDEN_MIXING
                                                charge density mixing in g-space
                        --------------------------------------------------------
                        Smear method:                                FERMI_DIRAC
                        Electronic temperature [K]:                        300.0
                        Electronic temperature [a.u.]:                  9.50E-04
                        Accuracy threshold:                             1.00E-10
                        --------------------------------------------------------
                        No outer SCF

 PW_GRID| Information for grid number                                          1
 PW_GRID| Grid distributed over                                    32 processors
 PW_GRID| Real space group dimensions                                    32    1
 PW_GRID| the grid is blocked:                                                NO
 PW_GRID| Cutoff [a.u.]                                                    200.0
 PW_GRID| spherical cutoff:                                                   NO
 PW_GRID|   Bounds   1            -67      67                Points:         135
 PW_GRID|   Bounds   2            -60      59                Points:         120
 PW_GRID|   Bounds   3           -250     249                Points:         500
 PW_GRID| Volume element (a.u.^3)  0.3785E-02     Volume (a.u.^3)     30656.6653
 PW_GRID| Grid span                                                    FULLSPACE
 PW_GRID|   Distribution                         Average         Max         Min
 PW_GRID|   G-Vectors                           253125.0      253125      253125
 PW_GRID|   G-Rays                                1875.0        1875        1875
 PW_GRID|   Real Space Points                   253125.0      300000      240000

 PW_GRID| Information for grid number                                          2
 PW_GRID| Number of the reference grid                                         1
 PW_GRID| Grid distributed over                                    32 processors
 PW_GRID| Real space group dimensions                                    32    1
 PW_GRID| the grid is blocked:                                                NO
 PW_GRID| Cutoff [a.u.]                                                     66.7
 PW_GRID| spherical cutoff:                                                   NO
 PW_GRID|   Bounds   1            -40      39                Points:          80
 PW_GRID|   Bounds   2            -36      35                Points:          72
 PW_GRID|   Bounds   3           -150     149                Points:         300
 PW_GRID| Volume element (a.u.^3)  0.1774E-01     Volume (a.u.^3)     30656.6653
 PW_GRID| Grid span                                                    FULLSPACE
 PW_GRID|   Distribution                         Average         Max         Min
 PW_GRID|   G-Vectors                            54000.0       54640       53520
 PW_GRID|   G-Rays                                 675.0         683         669
 PW_GRID|   Real Space Points                    54000.0       64800       43200

 PW_GRID| Information for grid number                                          3
 PW_GRID| Number of the reference grid                                         1
 PW_GRID| Grid distributed over                                    32 processors
 PW_GRID| Real space group dimensions                                    32    1
 PW_GRID| the grid is blocked:                                                NO
 PW_GRID| Cutoff [a.u.]                                                     22.2
 PW_GRID| spherical cutoff:                                                   NO
 PW_GRID|   Bounds   1            -22      22                Points:          45
 PW_GRID|   Bounds   2            -20      19                Points:          40
 PW_GRID|   Bounds   3            -90      89                Points:         180
 PW_GRID| Volume element (a.u.^3)  0.9462E-01     Volume (a.u.^3)     30656.6653
 PW_GRID| Grid span                                                    FULLSPACE
 PW_GRID|   Distribution                         Average         Max         Min
 PW_GRID|   G-Vectors                            10125.0       10260       10035
 PW_GRID|   G-Rays                                 225.0         228         223
 PW_GRID|   Real Space Points                    10125.0       14400        7200

 PW_GRID| Information for grid number                                          4
 PW_GRID| Number of the reference grid                                         1
 PW_GRID| Grid distributed over                                    32 processors
 PW_GRID| Real space group dimensions                                     4    8
 PW_GRID| the grid is blocked:                                                NO
 PW_GRID| Cutoff [a.u.]                                                      7.4
 PW_GRID| spherical cutoff:                                                   NO
 PW_GRID|   Bounds   1            -13      13                Points:          27
 PW_GRID|   Bounds   2            -12      11                Points:          24
 PW_GRID|   Bounds   3            -50      49                Points:         100
 PW_GRID| Volume element (a.u.^3)  0.4731         Volume (a.u.^3)     30656.6653
 PW_GRID| Grid span                                                    FULLSPACE
 PW_GRID|   Distribution                         Average         Max         Min
 PW_GRID|   G-Vectors                             2025.0        2133        1890
 PW_GRID|   G-Rays                                  75.0          79          70
 PW_GRID|   Real Space Points                     2025.0        2100        1800

 POISSON| Solver                                                        PERIODIC
 POISSON| Periodicity                                                        XYZ

 RS_GRID| Information for grid number                                          1
 RS_GRID|   Bounds   1            -67      67                Points:         135
 RS_GRID|   Bounds   2            -60      59                Points:         120
 RS_GRID|   Bounds   3           -250     249                Points:         500
 RS_GRID| Real space distribution over                                 32 groups
 RS_GRID| Real space distribution along direction                              3
 RS_GRID| Border size                                                         34
 RS_GRID|   Distribution                         Average         Max         Min
 RS_GRID|   Planes                                  83.6          84          83

 RS_GRID| Information for grid number                                          2
 RS_GRID|   Bounds   1            -40      39                Points:          80
 RS_GRID|   Bounds   2            -36      35                Points:          72
 RS_GRID|   Bounds   3           -150     149                Points:         300
 RS_GRID| Real space distribution over                                 32 groups
 RS_GRID| Real space distribution along direction                              3
 RS_GRID| Border size                                                         24
 RS_GRID|   Distribution                         Average         Max         Min
 RS_GRID|   Planes                                  57.4          58          57

 RS_GRID| Information for grid number                                          3
 RS_GRID|   Bounds   1            -22      22                Points:          45
 RS_GRID|   Bounds   2            -20      19                Points:          40
 RS_GRID|   Bounds   3            -90      89                Points:         180
 RS_GRID| Real space fully replicated
 RS_GRID| Group size                                                           1

 RS_GRID| Information for grid number                                          4
 RS_GRID|   Bounds   1            -13      13                Points:          27
 RS_GRID|   Bounds   2            -12      11                Points:          24
 RS_GRID|   Bounds   3            -50      49                Points:         100
 RS_GRID| Real space fully replicated
 RS_GRID| Group size                                                           1

 Number of electrons:                                                        968
 Number of occupied orbitals:                                                484
 Number of molecular orbitals:                                               984

 Number of orbital functions:                                               1943
 Number of independent orbital functions:                                   1943

 Extrapolation method: initial_guess


 SCF WAVEFUNCTION OPTIMIZATION

  Step     Update method      Time    Convergence         Total energy    Change
  ------------------------------------------------------------------------------
     1 NoMix/Diag. 0.30E+00    0.9     0.00006199     -2538.0195892049 -2.54E+03
     2 Broy./Diag. 0.30E+00    1.4     0.00062122     -2538.0520015912 -3.24E-02
     3 Broy./Diag. 0.30E+00    1.4     0.00056879     -2538.0525229797 -5.21E-04
     4 Broy./Diag. 0.30E+00    1.4     0.00010542     -2538.0523670581  1.56E-04
     5 Broy./Diag. 0.30E+00    1.4     0.00006278     -2538.0515746795  7.92E-04
     6 Broy./Diag. 0.30E+00    1.4     0.00001627     -2538.0523545938 -7.80E-04
     7 Broy./Diag. 0.30E+00    1.4     0.00000707     -2538.0520370277  3.18E-04
     8 Broy./Diag. 0.30E+00    1.4     0.00000191     -2538.0521418956 -1.05E-04
     9 Broy./Diag. 0.30E+00    1.4     0.00000041     -2538.0521268318  1.51E-05

  *** SCF run converged in     9 steps ***


  Electronic density on regular grids:       -968.0000000023       -0.0000000023
  Core density on regular grids:              967.9999999998       -0.0000000002
  Total charge density on r-space grids:       -0.0000000025
  Total charge density g-space grids:          -0.0000000025

  Overlap energy of the core charge distribution:               0.00001067490319
  Self energy of the core charge distribution:              -4440.62962420003350
  Core Hamiltonian energy:                                   1439.87804663610905
  Hartree energy:                                             901.52530846311242
  Exchange-correlation energy:                               -436.68235793305644
  Dispersion energy:                                           -2.11097896075271
  Electronic entropic energy:                                  -0.03253150997161
  Fermi energy:                                                 0.00117351379099

  Total energy:                                             -2538.05212683176887

 The electron density is written in cube file format to the file:

 cp2k-ELECTRON_DENSITY-1_0.cube

 !-----------------------------------------------------------------------------!
                     Mulliken Population Analysis

 #  Atom  Element  Kind  Atomic population                           Net charge
       1     Pt       1         10.054152                             -0.054152
       2     Pt       1         10.054170                             -0.054170
       3     Pt       1         10.054169                             -0.054169
       4     Pt       1         10.054150                             -0.054150
       5     Pt       1         10.054157                             -0.054157
       6     Pt       1         10.054147                             -0.054147
       7     Pt       1         10.054132                             -0.054132
       8     Pt       1         10.054146                             -0.054146
       9     Pt       1         10.054158                             -0.054158
      10     Pt       1         10.054123                             -0.054123
      11     Pt       1         10.054123                             -0.054123
      12     Pt       1         10.054155                             -0.054155
      13     Pt       1         10.054151                             -0.054151
      14     Pt       1         10.054149                             -0.054149
      15     Pt       1         10.054155                             -0.054155
      16     Pt       1         10.054148                             -0.054148
      17     Pt       1          9.971965                              0.028035
      18     Pt       1          9.971968                              0.028032
      19     Pt       1          9.971964                              0.028036
      20     Pt       1          9.971967                              0.028033
      21     Pt       1          9.971964                              0.028036
      22     Pt       1          9.971973                              0.028027
      23     Pt       1          9.971973                              0.028027
      24     Pt       1          9.971960                              0.028040
      25     Pt       1          9.971969                              0.028031
      26     Pt       1          9.971970                              0.028030
      27     Pt       1          9.971970                              0.028030
      28     Pt       1          9.971968                              0.028032
      29     Pt       1          9.971968                              0.028032
      30     Pt       1          9.971975                              0.028025
      31     Pt       1          9.971975                              0.028025
      32     Pt       1          9.971964                              0.028036
      33     Pt       1          9.973370                              0.026630
      34     Pt       1          9.973352                              0.026648
      35     Pt       1          9.973330                              0.026670
      36     Pt       1          9.973351                              0.026649
      37     Pt       1          9.973322                              0.026678
      38     Pt       1          9.973338                              0.026662
      39     Pt       1          9.973338                              0.026662
      40     Pt       1          9.973318                              0.026682
      41     Pt       1          9.973311                              0.026689
      42     Pt       1          9.973337                              0.026663
      43     Pt       1          9.973352                              0.026648
      44     Pt       1          9.973336                              0.026664
      45     Pt       1          9.973351                              0.026649
      46     Pt       1          9.973357                              0.026643
      47     Pt       1          9.973358                              0.026642
      48     Pt       1          9.973347                              0.026653
      49     Pt       1          9.973335                              0.026665
      50     Pt       1          9.973372                              0.026628
      51     Pt       1          9.973373                              0.026627
      52     Pt       1          9.973331                              0.026669
      53     Pt       1          9.973359                              0.026641
      54     Pt       1          9.973363                              0.026637
      55     Pt       1          9.973345                              0.026655
      56     Pt       1          9.973363                              0.026637
      57     Pt       1          9.973356                              0.026644
      58     Pt       1          9.973350                              0.026650
      59     Pt       1          9.973351                              0.026649
      60     Pt       1          9.973352                              0.026648
      61     Pt       1          9.973337                              0.026663
      62     Pt       1          9.973348                              0.026652
      63     Pt       1          9.973370                              0.026630
      64     Pt       1          9.973348                              0.026652
      65     Pt       1          9.971991                              0.028009
      66     Pt       1          9.971975                              0.028025
      67     Pt       1          9.972016                              0.027984
      68     Pt       1          9.971973                              0.028027
      69     Pt       1          9.971966                              0.028034
      70     Pt       1          9.971997                              0.028003
      71     Pt       1          9.971997                              0.028003
      72     Pt       1          9.971962                              0.028038
      73     Pt       1          9.971983                              0.028017
      74     Pt       1          9.972008                              0.027992
      75     Pt       1          9.972004                              0.027996
      76     Pt       1          9.972007                              0.027993
      77     Pt       1          9.971992                              0.028008
      78     Pt       1          9.971988                              0.028012
      79     Pt       1          9.971988                              0.028012
      80     Pt       1          9.971988                              0.028012
      81     Pt       1         10.053896                             -0.053896
      82     Pt       1         10.054427                             -0.054427
      83     Pt       1         10.055203                             -0.055203
      84     Pt       1         10.054425                             -0.054425
      85     Pt       1         10.053854                             -0.053854
      86     Pt       1         10.055434                             -0.055434
      87     Pt       1         10.055434                             -0.055434
      88     Pt       1         10.053851                             -0.053851
      89     Pt       1         10.053900                             -0.053900
      90     Pt       1         10.055579                             -0.055579
      91     Pt       1         10.059190                             -0.059190
      92     Pt       1         10.055578                             -0.055578
      93     Pt       1         10.054441                             -0.054441
      94     Pt       1         10.056733                             -0.056733
      95     Pt       1         10.056733                             -0.056733
      96     Pt       1         10.054439                             -0.054439
      97     O        2          6.244534                             -0.244534
      98     H        3          0.876201                              0.123799
      99     H        3          0.879319                              0.120681
 # Total charge                            968.000000                  0.000000

 !-----------------------------------------------------------------------------!

 !-----------------------------------------------------------------------------!
                           Hirshfeld Charges

  #Atom  Element  Kind  Ref Charge     Population                    Net charge
      1       Pt     1      10.000         10.014                        -0.014
      2       Pt     1      10.000         10.014                        -0.014
      3       Pt     1      10.000         10.014                        -0.014
      4       Pt     1      10.000         10.014                        -0.014
      5       Pt     1      10.000         10.014                        -0.014
      6       Pt     1      10.000         10.014                        -0.014
      7       Pt     1      10.000         10.014                        -0.014
      8       Pt     1      10.000         10.014                        -0.014
      9       Pt     1      10.000         10.014                        -0.014
     10       Pt     1      10.000         10.014                        -0.014
     11       Pt     1      10.000         10.014                        -0.014
     12       Pt     1      10.000         10.014                        -0.014
     13       Pt     1      10.000         10.014                        -0.014
     14       Pt     1      10.000         10.014                        -0.014
     15       Pt     1      10.000         10.014                        -0.014
     16       Pt     1      10.000         10.014                        -0.014
     17       Pt     1      10.000          9.987                         0.013
     18       Pt     1      10.000          9.987                         0.013
     19       Pt     1      10.000          9.987                         0.013
     20       Pt     1      10.000          9.987                         0.013
     21       Pt     1      10.000          9.987                         0.013
     22       Pt     1      10.000          9.987                         0.013
     23       Pt     1      10.000          9.987                         0.013
     24       Pt     1      10.000          9.987                         0.013
     25       Pt     1      10.000          9.987                         0.013
     26       Pt     1      10.000          9.987                         0.013
     27       Pt     1      10.000          9.987                         0.013
     28       Pt     1      10.000          9.987                         0.013
     29       Pt     1      10.000          9.987                         0.013
     30       Pt     1      10.000          9.987                         0.013
     31       Pt     1      10.000          9.987                         0.013
     32       Pt     1      10.000          9.987                         0.013
     33       Pt     1      10.000          9.998                         0.002
     34       Pt     1      10.000          9.998                         0.002
     35       Pt     1      10.000          9.998                         0.002
     36       Pt     1      10.000          9.998                         0.002
     37       Pt     1      10.000          9.998                         0.002
     38       Pt     1      10.000          9.998                         0.002
     39       Pt     1      10.000          9.998                         0.002
     40       Pt     1      10.000          9.998                         0.002
     41       Pt     1      10.000          9.998                         0.002
     42       Pt     1      10.000          9.998                         0.002
     43       Pt     1      10.000          9.998                         0.002
     44       Pt     1      10.000          9.998                         0.002
     45       Pt     1      10.000          9.998                         0.002
     46       Pt     1      10.000          9.998                         0.002
     47       Pt     1      10.000          9.998                         0.002
     48       Pt     1      10.000          9.998                         0.002
     49       Pt     1      10.000          9.998                         0.002
     50       Pt     1      10.000          9.998                         0.002
     51       Pt     1      10.000          9.998                         0.002
     52       Pt     1      10.000          9.998                         0.002
     53       Pt     1      10.000          9.998                         0.002
     54       Pt     1      10.000          9.998                         0.002
     55       Pt     1      10.000          9.998                         0.002
     56       Pt     1      10.000          9.998                         0.002
     57       Pt     1      10.000          9.998                         0.002
     58       Pt     1      10.000          9.998                         0.002
     59       Pt     1      10.000          9.998                         0.002
     60       Pt     1      10.000          9.998                         0.002
     61       Pt     1      10.000          9.998                         0.002
     62       Pt     1      10.000          9.998                         0.002
     63       Pt     1      10.000          9.998                         0.002
     64       Pt     1      10.000          9.998                         0.002
     65       Pt     1      10.000          9.987                         0.013
     66       Pt     1      10.000          9.987                         0.013
     67       Pt     1      10.000          9.987                         0.013
     68       Pt     1      10.000          9.987                         0.013
     69       Pt     1      10.000          9.987                         0.013
     70       Pt     1      10.000          9.987                         0.013
     71       Pt     1      10.000          9.987                         0.013
     72       Pt     1      10.000          9.987                         0.013
     73       Pt     1      10.000          9.987                         0.013
     74       Pt     1      10.000          9.987                         0.013
     75       Pt     1      10.000          9.987                         0.013
     76       Pt     1      10.000          9.987                         0.013
     77       Pt     1      10.000          9.987                         0.013
     78       Pt     1      10.000          9.987                         0.013
     79       Pt     1      10.000          9.987                         0.013
     80       Pt     1      10.000          9.987                         0.013
     81       Pt     1      10.000         10.014                        -0.014
     82       Pt     1      10.000         10.015                        -0.015
     83       Pt     1      10.000         10.015                        -0.015
     84       Pt     1      10.000         10.015                        -0.015
     85       Pt     1      10.000         10.014                        -0.014
     86       Pt     1      10.000         10.016                        -0.016
     87       Pt     1      10.000         10.016                        -0.016
     88       Pt     1      10.000         10.014                        -0.014
     89       Pt     1      10.000         10.014                        -0.014
     90       Pt     1      10.000         10.016                        -0.016
     91       Pt     1      10.000         10.021                        -0.021
     92       Pt     1      10.000         10.016                        -0.016
     93       Pt     1      10.000         10.015                        -0.015
     94       Pt     1      10.000         10.018                        -0.018
     95       Pt     1      10.000         10.018                        -0.018
     96       Pt     1      10.000         10.015                        -0.015
     97       O      2       6.000          7.114                        -1.114
     98       H      3       1.000          0.439                         0.561
     99       H      3       1.000          0.439                         0.561

  Total Charge                                                            0.003
 !-----------------------------------------------------------------------------!

 LOCALIZE| The spread relative to a set of orbitals is computed
 LOCALIZE| Orbitals to be localized: All orbitals
 LOCALIZE| If fractional occupation, fully occupied MOs are those 
           within occupation tolerance of       0.00000001
 LOCALIZE| Spread defined by the Berry phase operator 
 LOCALIZE| Optimal unitary transformation generated by Jacobi algorithm

         Restart file not available filename=<cp2k-LOC_HOMO-1_0.wfn>

 LOCALIZATION|    The orbitals to be localized are read from localization restart file.

 LOCALIZATION| Spin    1 The first    438 occupied orbitals are localized,
               with energies from    -0.729702 to    -0.017238 [a.u.].

 LOCALIZATION| Computing localization properties for OCCUPIED ORBITALS. Spin:  1
    Spread Functional     sum_in -w_i ln(|z_in|^2)    sum_in w_i(1-|z_in|^2)
    Initial Spread (Berry) :            187657.7380113089    29577.6614271384
    Localization by iterative distributed Jacobi rotation
                      Iteration            Functional         Tolerance   Time 
                            100        5072.7782295157       0.1608E+02   0.061
                            200        5063.8816766194       0.8986E+01   0.061
                            300        5063.1103873880       0.4257E+01   0.061
                            400        5062.5388520343       0.1053E+01   0.061
                            500        5062.5257069659       0.4778E-01   0.061
    Localization  for spin   1 converged in    547 iterations
    Spread Functional     sum_in -w_i ln(|z_in|^2)    sum_in w_i(1-|z_in|^2)
    Total Spread (Berry) :                6002.5282502620     5062.5256864135

 LOCALIZATION| Write restart file for the localized MOS : cp2k-LOC_HOMO-1_0.wfn


 ENERGY| Total FORCE_EVAL ( QS ) energy (a.u.):            -2538.052120715491128


 ATOMIC FORCES in [a.u.]

 # Atom   Kind   Element          X              Y              Z
      1      1      Pt          0.00000441    -0.00126561    -0.01268309
      2      1      Pt          0.00000869    -0.00126571    -0.01269044
      3      1      Pt         -0.00000967    -0.00126566    -0.01269044
      4      1      Pt         -0.00000445    -0.00126578    -0.01268419
      5      1      Pt          0.00000111    -0.00126319    -0.01268797
      6      1      Pt          0.00001019    -0.00126669    -0.01268537
      7      1      Pt         -0.00000015    -0.00126567    -0.01268346
      8      1      Pt         -0.00001012    -0.00126665    -0.01268572
      9      1      Pt          0.00000271    -0.00126452    -0.01268792
     10      1      Pt          0.00000927    -0.00126069    -0.01267926
     11      1      Pt         -0.00001026    -0.00126065    -0.01267927
     12      1      Pt         -0.00000275    -0.00126469    -0.01268903
     13      1      Pt          0.00000111    -0.00126290    -0.01268944
     14      1      Pt          0.00001624    -0.00125952    -0.01268432
     15      1      Pt         -0.00000015    -0.00125543    -0.01268972
     16      1      Pt         -0.00001617    -0.00125948    -0.01268467
     17      1      Pt          0.00000209    -0.00050461     0.00976380
     18      1      Pt          0.00000069    -0.00050049     0.00975825
     19      1      Pt          0.00000025    -0.00049884     0.00976126
     20      1      Pt         -0.00000159    -0.00050054     0.00975853
     21      1      Pt         -0.00000047    -0.00049240     0.00976189
     22      1      Pt         -0.00000394    -0.00049212     0.00975918
     23      1      Pt          0.00000293    -0.00049204     0.00975898
     24      1      Pt          0.00000005    -0.00049243     0.00976174
     25      1      Pt          0.00000209    -0.00049315     0.00976482
     26      1      Pt         -0.00000508    -0.00049094     0.00976321
     27      1      Pt          0.00000025    -0.00048832     0.00975647
     28      1      Pt          0.00000417    -0.00049099     0.00976349
     29      1      Pt         -0.00000206    -0.00049505     0.00976344
     30      1      Pt         -0.00000237    -0.00049188     0.00975932
     31      1      Pt          0.00000136    -0.00049180     0.00975911
     32      1      Pt          0.00000164    -0.00049509     0.00976329
     33      1      Pt          0.00000224     0.00175971     0.00102344
     34      1      Pt          0.00000709     0.00176213     0.00102730
     35      1      Pt          0.00000028     0.00176451     0.00103059
     36      1      Pt         -0.00000841     0.00176203     0.00102712
     37      1      Pt          0.00000394     0.00176034     0.00102857
     38      1      Pt          0.00000319     0.00177076     0.00103162
     39      1      Pt         -0.00000415     0.00177091     0.00103179
     40      1      Pt         -0.00000416     0.00176047     0.00102862
     41      1      Pt          0.00000224     0.00176302     0.00102331
     42      1      Pt          0.00001290     0.00176518     0.00102698
     43      1      Pt          0.00000028     0.00176718     0.00102547
     44      1      Pt         -0.00001422     0.00176507     0.00102680
     45      1      Pt          0.00000964     0.00177029     0.00102227
     46      1      Pt          0.00000583     0.00176716     0.00102458
     47      1      Pt         -0.00000679     0.00176731     0.00102474
     48      1      Pt         -0.00000986     0.00177042     0.00102232
     49      1      Pt         -0.00000106    -0.00176916    -0.00103614
[...]
     70      1      Pt         -0.00000504     0.00049421    -0.00975891
     71      1      Pt          0.00000403     0.00049413    -0.00975871
     72      1      Pt         -0.00000296     0.00049627    -0.00976547
     73      1      Pt          0.00000209     0.00049647    -0.00976534
     74      1      Pt         -0.00000017     0.00049871    -0.00976110
     75      1      Pt          0.00000025     0.00050823    -0.00975709
     76      1      Pt         -0.00000074     0.00049876    -0.00976138
     77      1      Pt          0.00000436     0.00049815    -0.00976290
     78      1      Pt          0.00000028     0.00049989    -0.00976385
     79      1      Pt         -0.00000129     0.00049981    -0.00976365
     80      1      Pt         -0.00000478     0.00049818    -0.00976275
     81      1      Pt          0.00000111     0.00125882     0.01268599
     82      1      Pt          0.00001568     0.00125574     0.01269562
     83      1      Pt         -0.00000015     0.00125251     0.01269199
     84      1      Pt         -0.00001562     0.00125570     0.01269597
     85      1      Pt          0.00000686     0.00126876     0.01269122
     86      1      Pt          0.00001903     0.00129219     0.01272043
     87      1      Pt         -0.00002002     0.00129214     0.01272044
     88      1      Pt         -0.00000690     0.00126893     0.01269232
     89      1      Pt          0.00000111     0.00126511     0.01269553
     90      1      Pt          0.00004034     0.00126823     0.01272645
     91      1      Pt         -0.00000015     0.00127006     0.01275955
     92      1      Pt         -0.00004028     0.00126819     0.01272680
     93      1      Pt          0.00001343     0.00125708     0.01270262
     94      1      Pt          0.00002720     0.00123491     0.01271736
     95      1      Pt         -0.00002819     0.00123486     0.01271736
     96      1      Pt         -0.00001347     0.00125725     0.01270373
     97      2      O           0.00000623    -0.00128746     0.00090584
     98      3      H          -0.00000001     0.00152620     0.00077579
     99      3      H          -0.00000001    -0.00024884    -0.00170986
 SUM OF ATOMIC FORCES           0.00000631    -0.00001116     0.00025494     0.00025526

 -------------------------------------------------------------------------------
 -                                                                             -
 -                                DBCSR STATISTICS                             -
 -                                                                             -
 -------------------------------------------------------------------------------
 COUNTER                                    TOTAL       BLAS       SMM       ACC
 flops     5 x    24 x     5                 4800       0.0%    100.0%      0.0%
 flops     5 x    24 x    13                 6240       0.0%    100.0%      0.0%
 flops    13 x    24 x     5                 6240       0.0%    100.0%      0.0%
 flops    13 x    24 x    13                 8112       0.0%    100.0%      0.0%
 flops     5 x    22 x     5                26400       0.0%    100.0%      0.0%
 flops     5 x    22 x    13                34320       0.0%    100.0%      0.0%
 flops    13 x    22 x     5                34320       0.0%    100.0%      0.0%
 flops    13 x    22 x    13                44616       0.0%    100.0%      0.0%
 flops     5 x    13 x    96               137280       0.0%    100.0%      0.0%
 flops    13 x     5 x    96               137280       0.0%    100.0%      0.0%
 flops     5 x     5 x    96               158400       0.0%    100.0%      0.0%
 flops     5 x    13 x   120               171600       0.0%    100.0%      0.0%
 flops    13 x     5 x   120               171600       0.0%    100.0%      0.0%
 flops     5 x     5 x   120               198000       0.0%    100.0%      0.0%
 flops    13 x    13 x    96               356928       0.0%    100.0%      0.0%
 flops    13 x    13 x   120               446160       0.0%    100.0%      0.0%
 flops    20 x    24 x    13               599040       0.0%    100.0%      0.0%
 flops    13 x    24 x    20               599040       0.0%    100.0%      0.0%
 flops     5 x    24 x    20               624000       0.0%    100.0%      0.0%
 flops    20 x    24 x     5               624000       0.0%    100.0%      0.0%
 flops     5 x    32 x     5               691200       0.0%    100.0%      0.0%
 flops     5 x    32 x    13               898560       0.0%    100.0%      0.0%
 flops    13 x    32 x     5               898560       0.0%    100.0%      0.0%
 flops     5 x    13 x   128              1098240       0.0%    100.0%      0.0%
 flops    13 x     5 x   128              1098240       0.0%    100.0%      0.0%
 flops    13 x    32 x    13              1168128       0.0%    100.0%      0.0%
 flops     5 x     5 x   128              1267200       0.0%    100.0%      0.0%
 flops    13 x    13 x   128              2855424       0.0%    100.0%      0.0%
 flops    20 x    22 x    13              3294720       0.0%    100.0%      0.0%
 flops    13 x    22 x    20              3294720       0.0%    100.0%      0.0%
 flops     5 x    22 x    20              3432000       0.0%    100.0%      0.0%
 flops    20 x    22 x     5              3432000       0.0%    100.0%      0.0%
 flops    20 x    13 x    96             13178880       0.0%    100.0%      0.0%
 flops    13 x    20 x    96             13178880       0.0%    100.0%      0.0%
 flops     5 x    20 x    96             13516800       0.0%    100.0%      0.0%
 flops    20 x     5 x    96             13939200       0.0%    100.0%      0.0%
 flops    20 x    13 x   120             16473600       0.0%    100.0%      0.0%
 flops    13 x    20 x   120             16473600       0.0%    100.0%      0.0%
 flops     5 x    20 x   120             16896000       0.0%    100.0%      0.0%
 flops    20 x     5 x   120             17424000       0.0%    100.0%      0.0%
 flops    20 x    32 x    13             86261760       0.0%    100.0%      0.0%
 flops    13 x    32 x    20             86261760       0.0%    100.0%      0.0%
 flops    20 x    32 x     5             89856000       0.0%    100.0%      0.0%
 flops     5 x    32 x    20             89856000       0.0%    100.0%      0.0%
 flops    20 x    13 x   128            105431040       0.0%    100.0%      0.0%
 flops    13 x    20 x   128            105431040       0.0%    100.0%      0.0%
 flops     5 x    20 x   128            108134400       0.0%    100.0%      0.0%
 flops    20 x     5 x   128            111513600       0.0%    100.0%      0.0%
 flops    20 x    24 x    20            176947200       0.0%    100.0%      0.0%
 flops    20 x    22 x    20            973209600       0.0%    100.0%      0.0%
 flops    20 x    20 x    96           3933388800       0.0%    100.0%      0.0%
 flops    20 x    20 x   120           4916736000       0.0%    100.0%      0.0%
 flops    20 x    32 x    20          25480396800       0.0%    100.0%      0.0%
 flops    20 x    20 x   128          31467110400       0.0%    100.0%      0.0%
 flops inhomo. stacks                           0       0.0%      0.0%      0.0%
 flops total                        67.879433E+09       0.0%    100.0%      0.0%
 flops max/rank                      2.328131E+09       0.0%    100.0%      0.0%
 matmuls inhomo. stacks                         0       0.0%      0.0%      0.0%
 matmuls total                            1527735       0.0%    100.0%      0.0%
 number of processed stacks                 11555       0.0%    100.0%      0.0%
 average stack size                                     0.0     132.2       0.0
 marketing flops                    70.295151E+09
 -------------------------------------------------------------------------------
 # multiplications                             18
 max memory usage/rank             325.459968E+06
 # max total images/rank                        2
 # max 3D layers                                1
 # MPI messages exchanged                    7488
 MPI messages size (bytes):
  total size                         3.316170E+09
  min size                          61.440000E+03
  max size                         960.392000E+03
  average size                     442.864625E+03
 MPI breakdown and total messages size (bytes):
             size <=      128                   0                        0
       128 < size <=     8192                   0                        0
      8192 < size <=    32768                   0                        0
     32768 < size <=   131072                1152                122548896
    131072 < size <=  4194304                6336               3193620936
   4194304 < size <= 16777216                   0                        0
  16777216 < size                               0                        0
 -------------------------------------------------------------------------------

 *** WARNING in dbcsr_mm.F:295 :: Using a non-square number of MPI ranks ***
 *** might lead to poor performance. Used ranks: 32 Suggested: 36 64     ***

 -------------------------------------------------------------------------------
 -                                                                             -
 -                      DBCSR MESSAGE PASSING PERFORMANCE                      -
 -                                                                             -
 -------------------------------------------------------------------------------
 ROUTINE             CALLS      AVE VOLUME [Bytes]
 MP_Group               18
 MP_Bcast               55                     12.
 MP_Allreduce          223                     18.
 MP_Alltoall           443                 222137.
 MP_Wait              1152
 MP_ISend              576                 194646.
 MP_IRecv              576                 191181.
 MP_Memory            1662
 -------------------------------------------------------------------------------

 MEMORY| Estimated peak process memory [MiB]                                 311

 -------------------------------------------------------------------------------
 ----                             MULTIGRID INFO                            ----
 -------------------------------------------------------------------------------
 count for grid        1:         253031          cutoff [a.u.]          200.00
 count for grid        2:         269564          cutoff [a.u.]           66.67
 count for grid        3:         157434          cutoff [a.u.]           22.22
 count for grid        4:         113478          cutoff [a.u.]            7.41
 total gridlevel count  :         793507

 -------------------------------------------------------------------------------
 -                                                                             -
 -                         MESSAGE PASSING PERFORMANCE                         -
 -                                                                             -
 -------------------------------------------------------------------------------

 ROUTINE             CALLS      AVE VOLUME [Bytes]
 MP_Group                4
 MP_Bcast             1885                 304933.
 MP_Allreduce         1528                   6935.
 MP_Sync                 5
 MP_Alltoall           237                8889531.
 MP_SendRecv         34038                 169124.
 MP_ISendRecv         1240                  66000.
 MP_Wait              3088
 MP_ISend             1672                 188509.
 MP_IRecv             1672                 188509.
 MP_Recv                60                 497408.
 MP_Write_All            3                1119280.
 -------------------------------------------------------------------------------


 -------------------------------------------------------------------------------
 -                                                                             -
 -                           R E F E R E N C E S                               -
 -                                                                             -
 -------------------------------------------------------------------------------
 
 CP2K version 7.1, the CP2K developers group (2019).
 CP2K is freely available from https://www.cp2k.org/ .

 Schuett, Ole; Messmer, Peter; Hutter, Juerg; VandeVondele, Joost. 
 Electronic Structure Calculations on Graphics Processing Units, John
 Wiley & Sons, Ltd, 173-190 (2016). 
 GPU-Accelerated Sparse Matrix-Matrix Multiplication for
 Linear Scaling Density Functional Theory.
 https://dx.doi.org/10.1002/9781118670712.ch8

 Borstnik, U; VandeVondele, J; Weber, V; Hutter, J. 
 PARALLEL COMPUTING, 40 (5-6), 47-58 (2014). 
 Sparse matrix multiplication: The distributed block-compressed sparse
 row library.
 https://dx.doi.org/10.1016/j.parco.2014.03.012

 Hutter, J; Iannuzzi, M; Schiffmann, F; VandeVondele, J. 
 WIREs Comput Mol Sci., 4 (1), 15-25 (2014). 
 CP2K: atomistic simulations of condensed matter systems.
 https://dx.doi.org/10.1002/wcms.1159

 Marek, A; Blum, V; Johanni, R; Havu, V; Lang, B; Auckenthaler, T;
 Heinecke, A; Bungartz, H; Lederer, H. 
 Journal of Physics: Condensed Matter, 26 (21), (2014). 
 The ELPA library: scalable parallel eigenvalue solutions for
 electronic structure
 theory and computational science.
 https://dx.doi.org/10.1088/0953-8984/26/21/213201

 Grimme, S; Ehrlich, S; Goerigk, L. 
 JOURNAL OF COMPUTATIONAL CHEMISTRY, 32, 1456 (2011). 
 Effect of the damping function in dispersion corrected density functional theory.
 https://dx.doi.org/10.1002/jcc.21759

 Grimme, S; Antony, J; Ehrlich, S; Krieg, H. 
 JOURNAL OF CHEMICAL PHYSICS, 132 (15), 154104 (2010). 
 A consistent and accurate ab initio parametrization of density
 functional dispersion correction (DFT-D) for the 94 elements H-Pu.
 https://dx.doi.org/10.1063/1.3382344

 VandeVondele, J; Hutter, J. 
 JOURNAL OF CHEMICAL PHYSICS, 127 (11), 114105 (2007). 
 Gaussian basis sets for accurate calculations on molecular systems in
 gas and condensed phases.
 https://dx.doi.org/10.1063/1.2770708

 Krack, M. 
 THEORETICAL CHEMISTRY ACCOUNTS, 114 (1-3), 145-152 (2005). 
 Pseudopotentials for H to Kr optimized for gradient-corrected
 exchange-correlation functionals.
 https://dx.doi.org/10.1007/s00214-005-0655-y

 VandeVondele, J; Krack, M; Mohamed, F; Parrinello, M; Chassaing, T;
 Hutter, J. COMPUTER PHYSICS COMMUNICATIONS, 167 (2), 103-128 (2005). 
 QUICKSTEP: Fast and accurate density functional calculations using a
 mixed Gaussian and plane waves approach.
 https://dx.doi.org/10.1016/j.cpc.2004.12.014

 Frigo, M; Johnson, SG. 
 PROCEEDINGS OF THE IEEE, 93 (2), 216-231 (2005). 
 The design and implementation of FFTW3.
 https://dx.doi.org/10.1109/JPROC.2004.840301

 Hartwigsen, C; Goedecker, S; Hutter, J. 
 PHYSICAL REVIEW B, 58 (7), 3641-3662 (1998). 
 Relativistic separable dual-space Gaussian pseudopotentials from H to Rn.
 https://dx.doi.org/10.1103/PhysRevB.58.3641

 Lippert, G; Hutter, J; Parrinello, M. 
 MOLECULAR PHYSICS, 92 (3), 477-487 (1997). 
 A hybrid Gaussian and plane wave density functional scheme.
 https://dx.doi.org/10.1080/002689797170220

 Perdew, JP; Burke, K; Ernzerhof, M. 
 PHYSICAL REVIEW LETTERS, 77 (18), 3865-3868 (1996). 
 Generalized gradient approximation made simple.
 https://dx.doi.org/10.1103/PhysRevLett.77.3865

 Goedecker, S; Teter, M; Hutter, J. 
 PHYSICAL REVIEW B, 54 (3), 1703-1710 (1996). 
 Separable dual-space Gaussian pseudopotentials.
 https://dx.doi.org/10.1103/PhysRevB.54.1703


 -------------------------------------------------------------------------------
 -                                                                             -
 -                                T I M I N G                                  -
 -                                                                             -
 -------------------------------------------------------------------------------
 SUBROUTINE                       CALLS  ASD         SELF TIME        TOTAL TIME
                                MAXIMUM       AVERAGE  MAXIMUM  AVERAGE  MAXIMUM
 CP2K                                 1  1.0    0.010    0.018   51.267   51.272
 qs_forces                            1  2.0    0.000    0.001   50.956   50.957
 qs_energies                          1  3.0    0.000    0.000   48.191   48.192
 scf_post_calculation_gpw             1  4.0    0.000    0.000   34.355   34.356
 get_localization_info                1  5.0    0.000    0.000   33.512   33.519
 qs_loc_driver                        1  6.0    0.000    0.000   33.512   33.519
 optimize_loc_berry                   1  7.0    0.017    0.018   33.506   33.507
 jacobi_rot_para                      1  8.0   26.606   28.525   33.417   33.418
 scf_env_do_scf                       1  4.0    0.000    0.000   12.466   12.477
 scf_env_do_scf_inner_loop            9  5.0    0.001    0.002   12.464   12.475
 rebuild_ks_matrix                   10  6.7    0.000    0.000    7.750    7.756
 qs_ks_build_kohn_sham_matrix        10  7.7    0.001    0.002    7.750    7.756
 qs_ks_update_qs_env                  9  6.0    0.000    0.000    6.844    6.846
 mp_allgather_d23                 16957  9.0    4.556    6.501    4.556    6.501
 pw_transfer                        200 10.2    0.010    0.011    4.054    4.122
 fft_wrap_pw1pw2                    180 11.3    0.002    0.002    4.000    4.068
 fft_wrap_pw1pw2_200                120 12.3    0.319    0.336    3.849    3.911
 sum_up_and_integrate                10  8.7    0.010    0.011    3.862    3.869
 integrate_v_rspace                  10  9.7    1.770    2.995    3.852    3.860
 qs_rho_update_rho                   10  6.0    0.000    0.000    3.826    3.827
 calculate_rho_elec                  10  7.0    1.625    2.718    3.826    3.827
 qs_vxc_create                       10  8.7    0.000    0.000    3.354    3.374
 xc_vxc_pw_create                    10  9.7    0.036    0.044    3.353    3.373
 fft3d_ps                           180 13.3    1.945    2.139    2.969    3.058
 density_rs2pw                       10  8.0    0.000    0.001    2.060    2.546
 rs_pw_transfer                      84 10.2    0.001    0.001    1.868    2.358
 mp_sendrecv_zm3                  16957  9.0    1.698    2.037    1.698    2.037
 xc_rho_set_and_dset_create          10 10.7    0.014    0.015    1.803    1.931
 build_core_hamiltonian_matrix_       1  3.0    0.000    0.000    1.716    1.850
 rs_pw_transfer_RS2PW_200            12  9.8    0.147    0.199    1.322    1.817
 mp_alltoall_d11v                   211 10.7    1.290    1.812    1.290    1.812
 rs_distribute_matrix                21  9.3    0.018    0.048    1.297    1.803
 mp_waitany                        1672 12.1    1.248    1.765    1.248    1.765
 qs_scf_new_mos                       9  6.0    0.000    0.000    1.541    1.544
 build_core_ppnl_forces               1  4.0    1.371    1.480    1.371    1.480
 eigensolver                          9  7.0    0.000    0.001    1.360    1.363
 cp_fm_diag_elpa                     10  8.1    0.000    0.000    1.144    1.145
 cp_fm_diag_elpa_base                10  9.1    1.115    1.116    1.144    1.144
 -------------------------------------------------------------------------------

 The number of warnings for this run is : 1
 
 -------------------------------------------------------------------------------
  **** **** ******  **  PROGRAM ENDED AT                 2024-11-01 22:13:37.189
 ***** ** ***  *** **   PROGRAM RAN ON                                   c53-012
 **    ****   ******    PROGRAM RAN BY                                     jxzhu
 ***** **    ** ** **   PROGRAM PROCESS ID                                257355
  **** **  *******  **  PROGRAM STOPPED IN /data/jxzhu/nnp/dp_workdir/d1f764b96e
                                           9a01b62c3e35b0c4f5198f3ba3ed59/calc.0
                                           01/task.002.000003
