 DBCSR| CPU Multiplication driver                                           XSMM
 DBCSR| Multrec recursion limit                                              512
 DBCSR| Multiplication stack size                                           1000
 DBCSR| Maximum elements for images                                    UNLIMITED
 DBCSR| Multiplicative factor virtual images                                   1
 DBCSR| Use multiplication densification                                       T
 DBCSR| Multiplication size stacks                                             3
 DBCSR| Use memory pool for CPU allocation                                     F
 DBCSR| Number of 3D layers                                               SINGLE
 DBCSR| Use MPI memory allocation                                              F
 DBCSR| Use RMA algorithm                                                      F
 DBCSR| Use Communication thread                                               T
 DBCSR| Communication thread load                                             87
 DBCSR| MPI: My node id                                                        0
 DBCSR| MPI: Number of nodes                                                  32
 DBCSR| OMP: Current number of threads                                         1
 DBCSR| OMP: Max number of threads                                             1
 DBCSR| Split modifier for TAS multiplication algorithm                  1.0E+00


  **** **** ******  **  PROGRAM STARTED AT               2023-12-03 01:24:16.209
 ***** ** ***  *** **   PROGRAM STARTED ON                                 cu042
 **    ****   ******    PROGRAM STARTED BY                                 jxzhu
 ***** **    ** ** **   PROGRAM PROCESS ID                                 59482
  **** **  *******  **  PROGRAM STARTED IN /public/home/jxzhu/tmp_calc/04c0855f9
                                           8753fac23fde4df51ba20f3741a9e9a/calc/
                                           task.000.000024

 CP2K| version string:                                       CP2K version 2022.1
 CP2K| source code revision number:                                  git:2caeb6f
 CP2K| cp2kflags: omp libint fftw3 libxc elpa parallel mpi3 scalapack cosma xsmm
 CP2K|             plumed2 spglib mkl sirius libvori libbqb
 CP2K| is freely available from                            https://www.cp2k.org/
 CP2K| Program compiled at                           Mon Jul 3 17:37:06 CST 2023
 CP2K| Program compiled on                                                 mu003
 CP2K| Program compiled for                                                local
 CP2K| Data directory path                             /public/home/jxzhu/basis/
 CP2K| Input file name                                                 input.inp
 
 GLOBAL| Force Environment number                                              1
 GLOBAL| Basis set file name                                        BASIS_MOLOPT
 GLOBAL| Potential file name                                      GTH_POTENTIALS
 GLOBAL| MM Potential file name                                     MM_POTENTIAL
 GLOBAL| Coordinate file name                                          coord.xyz
 GLOBAL| Method name                                                        CP2K
 GLOBAL| Project name                                                       cp2k
 GLOBAL| Run type                                                   ENERGY_FORCE
 GLOBAL| FFT library                                                       FFTW3
 GLOBAL| Diagonalization library                                            ELPA
 GLOBAL| Minimum number of eigenvectors for ELPA usage                        16
 GLOBAL| Orthonormality check for eigenvectors                          DISABLED
 GLOBAL| Matrix multiplication library                                     COSMA
 GLOBAL| All-to-all communication in single precision                          F
 GLOBAL| FFTs using library dependent lengths                                  T
 GLOBAL| Grid backend                                                       AUTO
 GLOBAL| Global print level                                               MEDIUM
 GLOBAL| MPI I/O enabled                                                       T
 GLOBAL| Total number of message passing processes                            32
 GLOBAL| Number of threads for this process                                    1
 GLOBAL| This output is from process                                           0
 GLOBAL| Stack size for threads created by OpenMP (OMP_STACKSIZE)        default
 GLOBAL| CPU model name                 Intel(R) Xeon(R) Gold 6338 CPU @ 2.00GHz
 GLOBAL| CPUID                                                              1003

 MEMORY| system memory details [Kb]
 MEMORY|                        rank 0           min           max       average
 MEMORY| MemTotal            263619172     263619172     263619172     263619172
 MEMORY| MemFree             162351984     162351984     162351984     162351984
 MEMORY| Buffers                  3320          3320          3320          3320
 MEMORY| Cached                7949196       7949196       7949196       7949196
 MEMORY| Slab                  1804368       1804368       1804368       1804368
 MEMORY| SReclaimable           242004        242004        242004        242004
 MEMORY| MemLikelyFree       170546504     170546504     170546504     170546504


 *** Fundamental physical constants (SI units) ***

 *** Literature: B. J. Mohr and B. N. Taylor,
 ***             CODATA recommended values of the fundamental physical
 ***             constants: 2006, Web Version 5.1
 ***             http://physics.nist.gov/constants

 Speed of light in vacuum [m/s]                             2.99792458000000E+08
 Magnetic constant or permeability of vacuum [N/A**2]       1.25663706143592E-06
 Electric constant or permittivity of vacuum [F/m]          8.85418781762039E-12
 Planck constant (h) [J*s]                                  6.62606896000000E-34
 Planck constant (h-bar) [J*s]                              1.05457162825177E-34
 Elementary charge [C]                                      1.60217648700000E-19
 Electron mass [kg]                                         9.10938215000000E-31
 Electron g factor [ ]                                     -2.00231930436220E+00
 Proton mass [kg]                                           1.67262163700000E-27
 Fine-structure constant                                    7.29735253760000E-03
 Rydberg constant [1/m]                                     1.09737315685270E+07
 Avogadro constant [1/mol]                                  6.02214179000000E+23
 Boltzmann constant [J/K]                                   1.38065040000000E-23
 Atomic mass unit [kg]                                      1.66053878200000E-27
 Bohr radius [m]                                            5.29177208590000E-11

 *** Conversion factors ***

 [u] -> [a.u.]                                              1.82288848426455E+03
 [Angstrom] -> [Bohr] = [a.u.]                              1.88972613288564E+00
 [a.u.] = [Bohr] -> [Angstrom]                              5.29177208590000E-01
 [a.u.] -> [s]                                              2.41888432650478E-17
 [a.u.] -> [fs]                                             2.41888432650478E-02
 [a.u.] -> [J]                                              4.35974393937059E-18
 [a.u.] -> [N]                                              8.23872205491840E-08
 [a.u.] -> [K]                                              3.15774647902944E+05
 [a.u.] -> [kJ/mol]                                         2.62549961709828E+03
 [a.u.] -> [kcal/mol]                                       6.27509468713739E+02
 [a.u.] -> [Pa]                                             2.94210107994716E+13
 [a.u.] -> [bar]                                            2.94210107994716E+08
 [a.u.] -> [atm]                                            2.90362800883016E+08
 [a.u.] -> [eV]                                             2.72113838565563E+01
 [a.u.] -> [Hz]                                             6.57968392072181E+15
 [a.u.] -> [1/cm] (wave numbers)                            2.19474631370540E+05
 [a.u./Bohr**2] -> [1/cm]                                   5.14048714338585E+03
 

 CELL_TOP| Volume [angstrom^3]:                                     12686.086737
 CELL_TOP| Vector a [angstrom    16.869     0.000     0.000   |a| =    16.869000
 CELL_TOP| Vector b [angstrom    -8.434    14.609     0.000   |b| =    16.868929
 CELL_TOP| Vector c [angstrom     0.000     0.000    51.478   |c| =    51.477900
 CELL_TOP| Angle (b,c), alpha [degree]:                                90.000000
 CELL_TOP| Angle (a,c), beta  [degree]:                                90.000000
 CELL_TOP| Angle (a,b), gamma [degree]:                               120.000140
 CELL_TOP| Numerically orthorhombic:                                          NO
 
 GENERATE|  Preliminary Number of Bonds generated:                             0
 GENERATE|  Achieved consistency in connectivity generation.

 CELL| Volume [angstrom^3]:                                         12686.086737
 CELL| Vector a [angstrom]:      16.869     0.000     0.000   |a| =    16.869000
 CELL| Vector b [angstrom]:      -8.434    14.609     0.000   |b| =    16.868929
 CELL| Vector c [angstrom]:       0.000     0.000    51.478   |c| =    51.477900
 CELL| Angle (b,c), alpha [degree]:                                    90.000000
 CELL| Angle (a,c), beta  [degree]:                                    90.000000
 CELL| Angle (a,b), gamma [degree]:                                   120.000140
 CELL| Numerically orthorhombic:                                              NO

 CELL_REF| Volume [angstrom^3]:                                     12686.086737
 CELL_REF| Vector a [angstrom    16.869     0.000     0.000   |a| =    16.869000
 CELL_REF| Vector b [angstrom    -8.434    14.609     0.000   |b| =    16.868929
 CELL_REF| Vector c [angstrom     0.000     0.000    51.478   |c| =    51.477900
 CELL_REF| Angle (b,c), alpha [degree]:                                90.000000
 CELL_REF| Angle (a,c), beta  [degree]:                                90.000000
 CELL_REF| Angle (a,b), gamma [degree]:                               120.000140
 CELL_REF| Numerically orthorhombic:                                          NO

 *******************************************************************************
 *******************************************************************************
 **                                                                           **
 **     #####                         ##              ##                      **
 **    ##   ##            ##          ##              ##                      **
 **   ##     ##                       ##            ######                    **
 **   ##     ##  ##   ##  ##   #####  ##  ##   ####   ##    #####    #####    **
 **   ##     ##  ##   ##  ##  ##      ## ##   ##      ##   ##   ##  ##   ##   **
 **   ##  ## ##  ##   ##  ##  ##      ####     ###    ##   ######   ######    **
 **    ##  ###   ##   ##  ##  ##      ## ##      ##   ##   ##       ##        **
 **     #######   #####   ##   #####  ##  ##  ####    ##    #####   ##        **
 **           ##                                                    ##        **
 **                                                                           **
 **                                                ... make the atoms dance   **
 **                                                                           **
 **            Copyright (C) by CP2K developers group (2000-2022)             **
 **                      J. Chem. Phys. 152, 194103 (2020)                    **
 **                                                                           **
 *******************************************************************************

 DFT| Spin restricted Kohn-Sham (RKS) calculation                            RKS
 DFT| Multiplicity                                                             1
 DFT| Number of spin states                                                    1
 DFT| Charge                                                                   0
 DFT| Self-interaction correction (SIC)                                       NO
 DFT| Cutoffs: density                                              1.000000E-10
 DFT|          gradient                                             1.000000E-10
 DFT|          tau                                                  1.000000E-10
 DFT|          cutoff_smoothing_range                               0.000000E+00
 DFT| XC density smoothing                                                  NONE
 DFT| XC derivatives                                                          PW

 FUNCTIONAL| PBE:
 FUNCTIONAL| J.P.Perdew, K.Burke, M.Ernzerhof, Phys. Rev. Letter, vol. 77, n 18,
 FUNCTIONAL|  pp. 3865-3868, (1996){spin unpolarized}                           

 vdW POTENTIAL|                                                   Pair Potential
 vdW POTENTIAL|          DFT-D3 (Version 3.1)
 vdW POTENTIAL|          Potential Form: S. Grimme et al, JCP 132: 154104 (2010)
 vdW POTENTIAL|          Zero Damping
 vdW POTENTIAL|          Cutoff Radius [Bohr]:                             20.00
 vdW POTENTIAL|          s6 Scaling Factor:                               1.0000
 vdW POTENTIAL|          sr6 Scaling Factor:                              1.2170
 vdW POTENTIAL|          s8 Scaling Factor:                               0.7220
 vdW POTENTIAL|          Cutoff for CN calculation:                   0.1000E-05

 QS| Method:                                                                 GPW
 QS| Density plane wave grid type                        NON-SPHERICAL FULLSPACE
 QS| Number of grid levels:                                                    4
 QS| Density cutoff [a.u.]:                                                200.0
 QS| Multi grid cutoff [a.u.]: 1) grid level                               200.0
 QS|                           2) grid level                                66.7
 QS|                           3) grid level                                22.2
 QS|                           4) grid level                                 7.4
 QS| Grid level progression factor:                                          3.0
 QS| Relative density cutoff [a.u.]:                                        20.0
 QS| Interaction thresholds: eps_pgf_orb:                                3.2E-07
 QS|                         eps_filter_matrix:                          0.0E+00
 QS|                         eps_core_charge:                            1.0E-15
 QS|                         eps_rho_gspace:                             1.0E-13
 QS|                         eps_rho_rspace:                             1.0E-13
 QS|                         eps_gvg_rspace:                             3.2E-07
 QS|                         eps_ppl:                                    1.0E-02
 QS|                         eps_ppnl:                                   3.2E-09


 ATOMIC KIND INFORMATION

  1. Atomic kind: Pt                                    Number of atoms:     216

     Orbital Basis Set                      DZVP-A5-Q10-323-MOL-T1-DERIVED_SET-1

       Number of orbital shell sets:                                           1
       Number of orbital shells:                                               6
       Number of primitive Cartesian functions:                                5
       Number of Cartesian basis functions:                                   23
       Number of spherical basis functions:                                   20
       Norm type:                                                              2

       Normalised Cartesian orbitals:

                        Set   Shell   Orbital            Exponent    Coefficient

                          1       1    2s                2.521825       0.177473
                                                         1.453920      -0.063399
                                                         0.614053      -0.407089
                                                         0.232656       0.262254
                                                         0.074788       0.047371

                          1       2    3s                2.521825      -0.049056
                                                         1.453920       0.044904
                                                         0.614053      -0.009756
                                                         0.232656      -0.144709
                                                         0.074788       0.144085

                          1       3    3px               2.521825      -0.317572
                                                         1.453920       0.534826
                                                         0.614053      -0.489458
                                                         0.232656       0.245631
                                                         0.074788       0.018221
                          1       3    3py               2.521825      -0.317572
                                                         1.453920       0.534826
                                                         0.614053      -0.489458
                                                         0.232656       0.245631
                                                         0.074788       0.018221
                          1       3    3pz               2.521825      -0.317572
                                                         1.453920       0.534826
                                                         0.614053      -0.489458
                                                         0.232656       0.245631
                                                         0.074788       0.018221

                          1       4    4dx2              2.521825       3.008522
                                                         1.453920      -1.224251
                                                         0.614053       0.225691
                                                         0.232656       0.125144
                                                         0.074788      -0.015348
                          1       4    4dxy              2.521825       5.210912
                                                         1.453920      -2.120465
                                                         0.614053       0.390909
                                                         0.232656       0.216756
                                                         0.074788      -0.026584
                          1       4    4dxz              2.521825       5.210912
                                                         1.453920      -2.120465
                                                         0.614053       0.390909
                                                         0.232656       0.216756
                                                         0.074788      -0.026584
                          1       4    4dy2              2.521825       3.008522
                                                         1.453920      -1.224251
                                                         0.614053       0.225691
                                                         0.232656       0.125144
                                                         0.074788      -0.015348
                          1       4    4dyz              2.521825       5.210912
                                                         1.453920      -2.120465
                                                         0.614053       0.390909
                                                         0.232656       0.216756
                                                         0.074788      -0.026584
                          1       4    4dz2              2.521825       3.008522
                                                         1.453920      -1.224251
                                                         0.614053       0.225691
                                                         0.232656       0.125144
                                                         0.074788      -0.015348

                          1       5    5dx2              2.521825       0.698026
                                                         1.453920      -1.511486
                                                         0.614053      -0.335394
                                                         0.232656      -0.025564
                                                         0.074788      -0.002699
                          1       5    5dxy              2.521825       1.209017
                                                         1.453920      -2.617970
                                                         0.614053      -0.580920
                                                         0.232656      -0.044277
                                                         0.074788      -0.004674
                          1       5    5dxz              2.521825       1.209017
                                                         1.453920      -2.617970
                                                         0.614053      -0.580920
                                                         0.232656      -0.044277
                                                         0.074788      -0.004674
                          1       5    5dy2              2.521825       0.698026
                                                         1.453920      -1.511486
                                                         0.614053      -0.335394
                                                         0.232656      -0.025564
                                                         0.074788      -0.002699
                          1       5    5dyz              2.521825       1.209017
                                                         1.453920      -2.617970
                                                         0.614053      -0.580920
                                                         0.232656      -0.044277
                                                         0.074788      -0.004674
                          1       5    5dz2              2.521825       0.698026
                                                         1.453920      -1.511486
                                                         0.614053      -0.335394
                                                         0.232656      -0.025564
                                                         0.074788      -0.002699

                          1       6    6dx2              2.521825       0.831079
                                                         1.453920      -0.709226
                                                         0.614053      -0.137351
                                                         0.232656       0.068642
                                                         0.074788       0.011745
                          1       6    6dxy              2.521825       1.439472
                                                         1.453920      -1.228415
                                                         0.614053      -0.237899
                                                         0.232656       0.118891
                                                         0.074788       0.020343
                          1       6    6dxz              2.521825       1.439472
                                                         1.453920      -1.228415
                                                         0.614053      -0.237899
                                                         0.232656       0.118891
                                                         0.074788       0.020343
                          1       6    6dy2              2.521825       0.831079
                                                         1.453920      -0.709226
                                                         0.614053      -0.137351
                                                         0.232656       0.068642
                                                         0.074788       0.011745
                          1       6    6dyz              2.521825       1.439472
                                                         1.453920      -1.228415
                                                         0.614053      -0.237899
                                                         0.232656       0.118891
                                                         0.074788       0.020343
                          1       6    6dz2              2.521825       0.831079
                                                         1.453920      -0.709226
                                                         0.614053      -0.137351
                                                         0.232656       0.068642
                                                         0.074788       0.011745

       Atomic covalent radius [Angstrom]:                                  1.300

       Atomic van der Waals radius [Angstrom]:                             1.750

     GTH Potential information for                                   GTH-PBE-q10

       Description:                       Goedecker-Teter-Hutter pseudopotential
                                           Goedecker et al., PRB 54, 1703 (1996)
                                          Hartwigsen et al., PRB 58, 3641 (1998)
                                                      Krack, TCA 114, 145 (2005)

       Gaussian exponent of the core charge distribution:               1.317676
       Electronic configuration (s p d ...):                           1   0   9

       Parameters of the local part of the GTH pseudopotential:

                          rloc        C1          C2          C3          C4
                        0.616000   11.313635

       Parameters of the non-local part of the GTH pseudopotential:

                   l      r(l)      h(i,j,l)

                   0    0.550904    4.733491   -1.784594
                                   -1.784594    2.303901
                   1    0.674138    2.534798   -1.778066
                                   -1.778066    2.103836
                   2    0.457392   -7.264011    2.558665
                                    2.558665   -2.901253


 MOLECULE KIND INFORMATION


 All atoms are their own molecule, skipping detailed information


 TOTAL NUMBERS AND MAXIMUM NUMBERS

  Total number of            - Atomic kinds:                                   1
                             - Atoms:                                        216
                             - Shell sets:                                   216
                             - Shells:                                      1296
                             - Primitive Cartesian functions:               1080
                             - Cartesian basis functions:                   4968
                             - Spherical basis functions:                   4320

  Maximum angular momentum of- Orbital basis functions:                        2
                             - Local part of the GTH pseudopotential:          0
                             - Non-local part of the GTH pseudopotential:      4


 MODULE QUICKSTEP:  ATOMIC COORDINATES IN angstrom

 Atom  Kind  Element       X           Y           Z          Z(eff)       Mass
    1   1 Pt  78       2.218851    0.314470   20.019937      10.0000    195.0840
    2   1 Pt  78       4.978852    0.424470   19.879934      10.0000    195.0840
    3   1 Pt  78       7.678852    0.374470   19.899934      10.0000    195.0840
    4   1 Pt  78      10.638852    0.324470   20.029935      10.0000    195.0840
    5   1 Pt  78      13.398852    0.354470   19.999937      10.0000    195.0840
    6   1 Pt  78      16.218851    0.504470   19.979932      10.0000    195.0840
    7   1 Pt  78       3.538851    2.964470   19.959936      10.0000    195.0840
    8   1 Pt  78       6.358851    2.784470   19.979932      10.0000    195.0840
    9   1 Pt  78       9.218851    2.774470   20.039934      10.0000    195.0840
   10   1 Pt  78      12.098853    2.684470   20.129934      10.0000    195.0840
   11   1 Pt  78      14.808853    2.834470   19.999937      10.0000    195.0840
   12   1 Pt  78       0.728851    2.754470   19.869936      10.0000    195.0840
   13   1 Pt  78       5.058852    5.294470   19.849935      10.0000    195.0840
   14   1 Pt  78       7.818852    5.244470   19.879934      10.0000    195.0840
   15   1 Pt  78      10.618852    5.084470   20.109934      10.0000    195.0840
   16   1 Pt  78      13.368852    5.194470   19.999937      10.0000    195.0840
   17   1 Pt  78      -0.631149    5.234470   19.879934      10.0000    195.0840
   18   1 Pt  78       2.088852    5.314470   19.989935      10.0000    195.0840
   19   1 Pt  78       6.438852    7.614470   19.969934      10.0000    195.0840
   20   1 Pt  78       9.318852    7.524470   19.799936      10.0000    195.0840
   21   1 Pt  78      12.048852    7.554470   19.929937      10.0000    195.0840
   22   1 Pt  78      -2.021149    7.544470   19.949934      10.0000    195.0840
   23   1 Pt  78       0.778851    7.754471   20.039934      10.0000    195.0840
   24   1 Pt  78       3.628851    7.664470   19.999937      10.0000    195.0840
   25   1 Pt  78       7.838851   10.054470   19.949934      10.0000    195.0840
   26   1 Pt  78      10.598852    9.844470   19.719934      10.0000    195.0840
   27   1 Pt  78      -3.421149   10.144470   19.869936      10.0000    195.0840
   28   1 Pt  78      -0.711149   10.034470   19.969934      10.0000    195.0840
   29   1 Pt  78       2.218851   10.014470   20.049932      10.0000    195.0840
   30   1 Pt  78       4.978852   10.144470   20.039934      10.0000    195.0840
   31   1 Pt  78       9.198852   12.584471   20.029935      10.0000    195.0840
   32   1 Pt  78      -4.871149   12.594470   19.819933      10.0000    195.0840
   33   1 Pt  78      -2.011149   12.564470   19.889936      10.0000    195.0840
   34   1 Pt  78       0.898851   12.564470   19.809934      10.0000    195.0840
   35   1 Pt  78       3.678852   12.544470   19.979932      10.0000    195.0840
   36   1 Pt  78       6.368851   12.594470   19.989935      10.0000    195.0840
   37   1 Pt  78       0.728851    1.274470   22.409933      10.0000    195.0840
   38   1 Pt  78       3.658851    1.354470   22.229936      10.0000    195.0840
   39   1 Pt  78       6.458851    1.174470   22.389936      10.0000    195.0840
   40   1 Pt  78       9.238852    1.244470   22.339933      10.0000    195.0840
   41   1 Pt  78      12.078852    1.154470   22.419935      10.0000    195.0840
   42   1 Pt  78      14.848852    1.204470   22.379934      10.0000    195.0840
   43   1 Pt  78       2.168852    3.674470   22.179933      10.0000    195.0840
   44   1 Pt  78       5.188852    3.674470   22.229936      10.0000    195.0840
   45   1 Pt  78       7.858852    3.634470   22.279935      10.0000    195.0840
   46   1 Pt  78      10.818852    3.674470   22.449934      10.0000    195.0840
   47   1 Pt  78      13.498852    3.574470   22.339933      10.0000    195.0840
   48   1 Pt  78      -0.661149    3.604470   22.249933      10.0000    195.0840
   49   1 Pt  78       3.568851    6.044470   22.259935      10.0000    195.0840
   50   1 Pt  78       6.428852    6.044470   22.129934      10.0000    195.0840
   51   1 Pt  78       9.248852    6.054470   22.199934      10.0000    195.0840
   52   1 Pt  78      12.088851    6.064470   22.329935      10.0000    195.0840
   53   1 Pt  78      -2.051149    6.134470   22.309934      10.0000    195.0840
   54   1 Pt  78       0.728851    6.124470   22.329935      10.0000    195.0840
   55   1 Pt  78       5.078852    8.414471   22.339933      10.0000    195.0840
   56   1 Pt  78       7.858852    8.524470   22.229936      10.0000    195.0840
   57   1 Pt  78      10.528852    8.524470   22.139936      10.0000    195.0840
   58   1 Pt  78      -3.451149    8.504470   22.279935      10.0000    195.0840
   59   1 Pt  78      -0.661149    8.494471   22.259935      10.0000    195.0840
   60   1 Pt  78       2.168852    8.564470   22.309934      10.0000    195.0840
   61   1 Pt  78       6.398852   10.844471   22.299936      10.0000    195.0840
   62   1 Pt  78       9.188852   11.004470   22.229936      10.0000    195.0840
   63   1 Pt  78      -4.901149   11.064470   22.149934      10.0000    195.0840
   64   1 Pt  78      -2.111149   10.934470   22.219934      10.0000    195.0840
   65   1 Pt  78       0.678851   10.944470   22.279935      10.0000    195.0840
   66   1 Pt  78       3.588851   10.954470   22.379934      10.0000    195.0840
   67   1 Pt  78       7.808852   13.404470   22.239935      10.0000    195.0840
   68   1 Pt  78      -6.311149   13.524470   22.299936      10.0000    195.0840
   69   1 Pt  78      -3.451149   13.384470   22.169935      10.0000    195.0840
   70   1 Pt  78      -0.671149   13.344471   22.259935      10.0000    195.0840
   71   1 Pt  78       2.198851   13.394470   22.239935      10.0000    195.0840
   72   1 Pt  78       5.058852   13.344471   22.349935      10.0000    195.0840
   73   1 Pt  78      -7.621149   14.224470   24.599935      10.0000    195.0840
   74   1 Pt  78      -4.781149   14.264471   24.469934      10.0000    195.0840
   75   1 Pt  78      -1.981149   14.144471   24.589933      10.0000    195.0840
   76   1 Pt  78       0.758851   14.064470   24.679937      10.0000    195.0840
   77   1 Pt  78       3.628851   14.214471   24.689935      10.0000    195.0840
   78   1 Pt  78       6.458851   14.254470   24.749937      10.0000    195.0840
   79   1 Pt  78       2.168852    2.114470   24.539938      10.0000    195.0840
   80   1 Pt  78       5.098852    2.144470   24.579935      10.0000    195.0840
   81   1 Pt  78       7.888852    2.014470   24.719934      10.0000    195.0840
   82   1 Pt  78      10.658852    1.904470   24.699934      10.0000    195.0840
   83   1 Pt  78      13.548851    2.024470   24.699934      10.0000    195.0840
   84   1 Pt  78      -0.581149    2.014470   24.599935      10.0000    195.0840
   85   1 Pt  78       3.758851    4.544470   24.599935      10.0000    195.0840
   86   1 Pt  78       6.528852    4.554470   24.569936      10.0000    195.0840
   87   1 Pt  78       9.338852    4.514470   24.699934      10.0000    195.0840
   88   1 Pt  78      12.048852    4.434470   24.699934      10.0000    195.0840
   89   1 Pt  78      -2.001149    4.474470   24.599935      10.0000    195.0840
   90   1 Pt  78       0.858851    4.444470   24.539938      10.0000    195.0840
   91   1 Pt  78       5.078852    6.964470   24.609937      10.0000    195.0840
   92   1 Pt  78       7.838851    6.854470   24.609937      10.0000    195.0840
   93   1 Pt  78      10.618852    6.964470   24.509935      10.0000    195.0840
   94   1 Pt  78      -3.491149    6.914470   24.629934      10.0000    195.0840
   95   1 Pt  78      -0.531149    6.874470   24.669935      10.0000    195.0840
   96   1 Pt  78       2.248851    6.864470   24.609937      10.0000    195.0840
   97   1 Pt  78       6.438852    9.454470   24.609937      10.0000    195.0840
   98   1 Pt  78       9.258851    9.364470   24.499937      10.0000    195.0840
   99   1 Pt  78      -4.771149    9.434470   24.439935      10.0000    195.0840
  100   1 Pt  78      -1.951149    9.284471   24.559934      10.0000    195.0840
  101   1 Pt  78       0.958851    9.314470   24.639936      10.0000    195.0840
  102   1 Pt  78       3.648852    9.374471   24.659933      10.0000    195.0840
  103   1 Pt  78       7.858852   11.804470   24.679937      10.0000    195.0840
  104   1 Pt  78      -6.261149   11.814470   24.489935      10.0000    195.0840
  105   1 Pt  78      -3.391149   11.744471   24.569936      10.0000    195.0840
  106   1 Pt  78      -0.631149   11.684470   24.579935      10.0000    195.0840
  107   1 Pt  78       2.188851   11.784471   24.679937      10.0000    195.0840
  108   1 Pt  78       4.968851   11.814470   24.669935      10.0000    195.0840
  109   1 Pt  78       2.188851    0.474470   26.817933      10.0000    195.0840
  110   1 Pt  78       5.048851    0.364470   26.737933      10.0000    195.0840
  111   1 Pt  78       7.818852    0.384470   26.927933      10.0000    195.0840
  112   1 Pt  78      10.548851    0.334470   27.037933      10.0000    195.0840
  113   1 Pt  78      13.368852    0.374470   27.057934      10.0000    195.0840
  114   1 Pt  78      16.178852    0.374470   26.937933      10.0000    195.0840
  115   1 Pt  78       3.598852    2.754470   26.857933      10.0000    195.0840
  116   1 Pt  78       6.368851    2.914470   26.937933      10.0000    195.0840
  117   1 Pt  78       9.198852    2.924470   26.907933      10.0000    195.0840
  118   1 Pt  78      11.978853    2.814470   26.987933      10.0000    195.0840
  119   1 Pt  78      14.838852    2.834470   26.987933      10.0000    195.0840
  120   1 Pt  78       0.748851    2.764470   26.957933      10.0000    195.0840
  121   1 Pt  78       4.988851    5.314470   26.957933      10.0000    195.0840
  122   1 Pt  78       7.748851    5.364470   26.957933      10.0000    195.0840
  123   1 Pt  78      10.548851    5.344470   26.997933      10.0000    195.0840
  124   1 Pt  78      13.308852    5.264470   26.917933      10.0000    195.0840
  125   1 Pt  78      -0.601149    5.254470   26.917933      10.0000    195.0840
  126   1 Pt  78       2.268851    5.214470   26.887933      10.0000    195.0840
  127   1 Pt  78       6.408852    7.754471   26.847933      10.0000    195.0840
  128   1 Pt  78       9.178852    7.814470   26.947933      10.0000    195.0840
  129   1 Pt  78      12.018852    7.724470   26.907933      10.0000    195.0840
  130   1 Pt  78      -2.091149    7.644470   26.877933      10.0000    195.0840
  131   1 Pt  78       0.778851    7.624470   26.907933      10.0000    195.0840
  132   1 Pt  78       3.618852    7.734470   26.907933      10.0000    195.0840
  133   1 Pt  78       7.788852   10.194469   26.897933      10.0000    195.0840
  134   1 Pt  78      10.638852   10.164470   26.797933      10.0000    195.0840
  135   1 Pt  78      -3.441149   10.174470   26.877933      10.0000    195.0840
  136   1 Pt  78      -0.651149   10.064470   26.917933      10.0000    195.0840
  137   1 Pt  78       2.128851   10.214470   27.097933      10.0000    195.0840
  138   1 Pt  78       5.018852   10.154470   26.887933      10.0000    195.0840
  139   1 Pt  78       9.258851   12.584471   26.897933      10.0000    195.0840
  140   1 Pt  78      -4.811149   12.544470   26.727933      10.0000    195.0840
  141   1 Pt  78      -1.971149   12.534471   26.907933      10.0000    195.0840
  142   1 Pt  78       0.708851   12.494471   26.997933      10.0000    195.0840
  143   1 Pt  78       3.458852   12.704471   27.047933      10.0000    195.0840
  144   1 Pt  78       6.378852   12.604470   26.987933      10.0000    195.0840
  145   1 Pt  78       0.798851    1.234470   29.257934      10.0000    195.0840
  146   1 Pt  78       3.458852    1.284470   29.157934      10.0000    195.0840
  147   1 Pt  78       6.258851    1.124470   29.207933      10.0000    195.0840
  148   1 Pt  78       8.998851    1.234470   29.137933      10.0000    195.0840
  149   1 Pt  78      11.908852    1.384470   29.387934      10.0000    195.0840
  150   1 Pt  78      14.778852    1.234470   29.287933      10.0000    195.0840
  151   1 Pt  78       2.068851    3.694470   29.277934      10.0000    195.0840
  152   1 Pt  78       4.908852    3.614470   29.107933      10.0000    195.0840
  153   1 Pt  78       7.658852    3.604470   29.227934      10.0000    195.0840
  154   1 Pt  78      10.548851    3.654470   29.207933      10.0000    195.0840
  155   1 Pt  78      13.368852    3.654470   29.297934      10.0000    195.0840
  156   1 Pt  78      -0.661149    3.634470   29.327934      10.0000    195.0840
  157   1 Pt  78       3.458852    6.254470   29.107933      10.0000    195.0840
  158   1 Pt  78       6.298851    6.034470   29.317934      10.0000    195.0840
  159   1 Pt  78       9.168851    6.074470   29.347933      10.0000    195.0840
  160   1 Pt  78      11.958851    6.154470   29.257934      10.0000    195.0840
  161   1 Pt  78      -2.171149    6.004470   29.337933      10.0000    195.0840
  162   1 Pt  78       0.678851    6.024470   29.177934      10.0000    195.0840
  163   1 Pt  78       4.988851    8.564470   29.197934      10.0000    195.0840
  164   1 Pt  78       7.708851    8.484470   29.307933      10.0000    195.0840
  165   1 Pt  78      10.488852    8.604470   29.297934      10.0000    195.0840
  166   1 Pt  78      -3.591149    8.564470   29.227934      10.0000    195.0840
  167   1 Pt  78      -0.741149    8.294470   29.267934      10.0000    195.0840
  168   1 Pt  78       1.918851    8.584471   29.237933      10.0000    195.0840
  169   1 Pt  78       6.338852   11.064470   29.277934      10.0000    195.0840
  170   1 Pt  78       9.088851   10.984470   29.217933      10.0000    195.0840
  171   1 Pt  78      -4.881149   11.084470   29.217933      10.0000    195.0840
  172   1 Pt  78      -2.121149   11.014470   29.247934      10.0000    195.0840
  173   1 Pt  78       0.658851   11.024470   29.297934      10.0000    195.0840
  174   1 Pt  78       3.438852   11.054471   29.387934      10.0000    195.0840
  175   1 Pt  78       7.688852   13.424471   29.277934      10.0000    195.0840
  176   1 Pt  78      -6.281149   13.424471   29.197934      10.0000    195.0840
  177   1 Pt  78      -3.501149   13.484470   29.077933      10.0000    195.0840
  178   1 Pt  78      -0.661149   13.454471   29.247934      10.0000    195.0840
  179   1 Pt  78       2.268851   13.534470   29.317934      10.0000    195.0840
  180   1 Pt  78       4.908852   13.464470   29.397933      10.0000    195.0840
  181   1 Pt  78      -7.561149   14.254470   31.507934      10.0000    195.0840
  182   1 Pt  78      -4.941149   14.204470   31.477933      10.0000    195.0840
  183   1 Pt  78      -2.091149   14.174470   31.687934      10.0000    195.0840
  184   1 Pt  78       0.648851   14.294471   31.687934      10.0000    195.0840
  185   1 Pt  78       3.458852   14.204470   31.707933      10.0000    195.0840
  186   1 Pt  78       6.308852   14.084471   31.727934      10.0000    195.0840
  187   1 Pt  78       2.178851    2.074470   31.697934      10.0000    195.0840
  188   1 Pt  78       4.898851    1.994470   31.577933      10.0000    195.0840
  189   1 Pt  78       7.648852    2.054470   31.547934      10.0000    195.0840
  190   1 Pt  78      10.498852    2.044470   31.617933      10.0000    195.0840
  191   1 Pt  78      13.338851    1.944470   31.547934      10.0000    195.0840
  192   1 Pt  78      -0.621149    1.914470   31.607933      10.0000    195.0840
  193   1 Pt  78       3.538851    4.514470   31.457934      10.0000    195.0840
  194   1 Pt  78       6.268852    4.384470   31.757934      10.0000    195.0840
  195   1 Pt  78       9.048852    4.254470   31.497934      10.0000    195.0840
  196   1 Pt  78      11.768853    4.474470   31.497934      10.0000    195.0840
  197   1 Pt  78      -2.181149    4.374470   31.647934      10.0000    195.0840
  198   1 Pt  78       0.618851    4.504470   31.557934      10.0000    195.0840
  199   1 Pt  78       4.788851    6.874470   31.507934      10.0000    195.0840
  200   1 Pt  78       7.688852    6.794470   31.687934      10.0000    195.0840
  201   1 Pt  78      10.408852    6.964470   31.627933      10.0000    195.0840
  202   1 Pt  78      -3.591149    6.924470   31.527934      10.0000    195.0840
  203   1 Pt  78      -0.701149    6.854470   31.707933      10.0000    195.0840
  204   1 Pt  78       1.978851    6.854470   31.517934      10.0000    195.0840
  205   1 Pt  78       6.158852    9.304470   31.597934      10.0000    195.0840
  206   1 Pt  78       8.938852    9.344470   31.717934      10.0000    195.0840
  207   1 Pt  78      -5.041149    9.404470   31.607933      10.0000    195.0840
  208   1 Pt  78      -2.281149    9.354470   31.497934      10.0000    195.0840
  209   1 Pt  78       0.548851    9.344470   31.647934      10.0000    195.0840
  210   1 Pt  78       3.468851    9.334471   31.477933      10.0000    195.0840
  211   1 Pt  78       7.708851   11.744471   31.687934      10.0000    195.0840
  212   1 Pt  78      -6.341149   11.804470   31.547934      10.0000    195.0840
  213   1 Pt  78      -3.501149   11.744471   31.627933      10.0000    195.0840
  214   1 Pt  78      -0.661149   11.734470   31.517934      10.0000    195.0840
  215   1 Pt  78       2.028851   11.824470   31.607933      10.0000    195.0840
  216   1 Pt  78       4.878851   11.724470   31.627933      10.0000    195.0840




 SCF PARAMETERS         Density guess:                                   RESTART
                        --------------------------------------------------------
                        max_scf:                                             500
                        max_scf_history:                                       0
                        max_diis:                                              4
                        --------------------------------------------------------
                        eps_scf:                                        1.00E-06
                        eps_scf_history:                                0.00E+00
                        eps_diis:                                       1.00E-01
                        eps_eigval:                                     1.00E-05
                        --------------------------------------------------------
                        level_shift [a.u.]:                             0.000000
                        added MOs                                       500    0
                        --------------------------------------------------------
                        Mixing method:                            BROYDEN_MIXING
                                                charge density mixing in g-space
                        --------------------------------------------------------
                        Smear method:                                FERMI_DIRAC
                        Electronic temperature [K]:                        300.0
                        Electronic temperature [a.u.]:                  9.50E-04
                        Accuracy threshold:                             1.00E-10
                        --------------------------------------------------------
                        No outer SCF

 PW_GRID| Information for grid number                                          1
 PW_GRID| Grid distributed over                                    32 processors
 PW_GRID| Real space group dimensions                                    32    1
 PW_GRID| the grid is blocked:                                                NO
 PW_GRID| Cutoff [a.u.]                                                    200.0
 PW_GRID| spherical cutoff:                                                   NO
 PW_GRID|   Bounds   1           -105     104                Points:         210
 PW_GRID|   Bounds   2           -105     104                Points:         210
 PW_GRID|   Bounds   3           -315     314                Points:         630
 PW_GRID| Volume element (a.u.^3)  0.3081E-02     Volume (a.u.^3)     85609.9578
 PW_GRID| Grid span                                                    FULLSPACE
 PW_GRID|   Distribution                         Average         Max         Min
 PW_GRID|   G-Vectors                           868218.8      868350      868140
 PW_GRID|   G-Rays                                4134.4        4135        4134
 PW_GRID|   Real Space Points                   868218.8      926100      793800

 PW_GRID| Information for grid number                                          2
 PW_GRID| Number of the reference grid                                         1
 PW_GRID| Grid distributed over                                    32 processors
 PW_GRID| Real space group dimensions                                    32    1
 PW_GRID| the grid is blocked:                                                NO
 PW_GRID| Cutoff [a.u.]                                                     66.7
 PW_GRID| spherical cutoff:                                                   NO
 PW_GRID|   Bounds   1            -60      59                Points:         120
 PW_GRID|   Bounds   2            -60      59                Points:         120
 PW_GRID|   Bounds   3           -180     179                Points:         360
 PW_GRID| Volume element (a.u.^3)  0.1651E-01     Volume (a.u.^3)     85609.9578
 PW_GRID| Grid span                                                    FULLSPACE
 PW_GRID|   Distribution                         Average         Max         Min
 PW_GRID|   G-Vectors                           162000.0      162840      161280
 PW_GRID|   G-Rays                                1350.0        1357        1344
 PW_GRID|   Real Space Points                   162000.0      172800      129600

 PW_GRID| Information for grid number                                          3
 PW_GRID| Number of the reference grid                                         1
 PW_GRID| Grid distributed over                                    32 processors
 PW_GRID| Real space group dimensions                                    32    1
 PW_GRID| the grid is blocked:                                                NO
 PW_GRID| Cutoff [a.u.]                                                     22.2
 PW_GRID| spherical cutoff:                                                   NO
 PW_GRID|   Bounds   1            -35      34                Points:          70
 PW_GRID|   Bounds   2            -35      34                Points:          70
 PW_GRID|   Bounds   3           -105     104                Points:         210
 PW_GRID| Volume element (a.u.^3)  0.8320E-01     Volume (a.u.^3)     85609.9578
 PW_GRID| Grid span                                                    FULLSPACE
 PW_GRID|   Distribution                         Average         Max         Min
 PW_GRID|   G-Vectors                            32156.2       32340       31990
 PW_GRID|   G-Rays                                 459.4         462         457
 PW_GRID|   Real Space Points                    32156.2       44100       29400

 PW_GRID| Information for grid number                                          4
 PW_GRID| Number of the reference grid                                         1
 PW_GRID| Grid distributed over                                    32 processors
 PW_GRID| Real space group dimensions                                    32    1
 PW_GRID| the grid is blocked:                                                NO
 PW_GRID| Cutoff [a.u.]                                                      7.4
 PW_GRID| spherical cutoff:                                                   NO
 PW_GRID|   Bounds   1            -20      19                Points:          40
 PW_GRID|   Bounds   2            -20      19                Points:          40
 PW_GRID|   Bounds   3            -60      59                Points:         120
 PW_GRID| Volume element (a.u.^3)  0.4459         Volume (a.u.^3)     85609.9578
 PW_GRID| Grid span                                                    FULLSPACE
 PW_GRID|   Distribution                         Average         Max         Min
 PW_GRID|   G-Vectors                             6000.0        6120        5920
 PW_GRID|   G-Rays                                 150.0         153         148
 PW_GRID|   Real Space Points                     6000.0        9600        4800

 POISSON| Solver                                          IMPLICIT (GENERALIZED)
 POISSON| Boundary Condition                                PERIODIC & DIRICHLET
 POISSON| Maximum number of iterations                                        30
 POISSON| Convergence threshold                                         1.00E-08
 POISSON| Dielectric Constant                                              80.00
 POISSON| Relaxation parameter                                          1.00E+00

 RS_GRID| Information for grid number                                          1
 RS_GRID|   Bounds   1           -105     104                Points:         210
 RS_GRID|   Bounds   2           -105     104                Points:         210
 RS_GRID|   Bounds   3           -315     314                Points:         630
 RS_GRID| Real space distribution over                                 32 groups
 RS_GRID| Real space distribution along direction                              3
 RS_GRID| Border size                                                         54
 RS_GRID|   Distribution                         Average         Max         Min
 RS_GRID|   Planes                                 127.7         128         127

 RS_GRID| Information for grid number                                          2
 RS_GRID|   Bounds   1            -60      59                Points:         120
 RS_GRID|   Bounds   2            -60      59                Points:         120
 RS_GRID|   Bounds   3           -180     179                Points:         360
 RS_GRID| Real space distribution over                                 32 groups
 RS_GRID| Real space distribution along direction                              3
 RS_GRID| Border size                                                         36
 RS_GRID|   Distribution                         Average         Max         Min
 RS_GRID|   Planes                                  83.2          84          83

 RS_GRID| Information for grid number                                          3
 RS_GRID|   Bounds   1            -35      34                Points:          70
 RS_GRID|   Bounds   2            -35      34                Points:          70
 RS_GRID|   Bounds   3           -105     104                Points:         210
 RS_GRID| Real space fully replicated
 RS_GRID| Group size                                                           1

 RS_GRID| Information for grid number                                          4
 RS_GRID|   Bounds   1            -20      19                Points:          40
 RS_GRID|   Bounds   2            -20      19                Points:          40
 RS_GRID|   Bounds   3            -60      59                Points:         120
 RS_GRID| Real space fully replicated
 RS_GRID| Group size                                                           1

 Number of electrons:                                                       2160
 Number of occupied orbitals:                                               1080
 Number of molecular orbitals:                                              1580

 Number of orbital functions:                                               4320
 Number of independent orbital functions:                                   4320

 Extrapolation method: initial_guess


 SCF WAVEFUNCTION OPTIMIZATION

  Step     Update method      Time    Convergence         Total energy    Change
  ------------------------------------------------------------------------------

  POISSON| IMPLICIT (GENERALIZED) SOLVER ---------------------------------------
  POISSON| Preparing Dirichlet regions ...
  POISSON| Dirichlet region    1
  POISSON|     type : axis-aligned planar
  POISSON|     applied potential :   0.0000E+00  [Eh/e]
  POISSON| Dirichlet region    2
  POISSON|     type : axis-aligned planar
  POISSON|     applied potential :  -0.3675E-01  [Eh/e]
  POISSON| ... Done. 
  ------------------------------------------------------------------------------

  POISSON|   iter        pres error      nabs error        E_hartree    delta E
  POISSON|      1        0.7379E-03      0.3271E-01    1992.4276792390  0.20E+04
  POISSON|      2        0.6349E-15      0.7379E-03    1992.4311892834  0.35E-02
  POISSON| Poisson solver converged in 2 iterations.
     1 NoMix/Diag. 0.30E+00   11.1     0.19059844     -5670.8722076906 -5.67E+03
  POISSON|   iter        pres error      nabs error        E_hartree    delta E
  POISSON|      1        0.6958E-03      0.3248E-01    1992.2786779624 -0.15E+00
  POISSON|      2        0.9029E-15      0.6958E-03    1992.2819879544  0.33E-02
  POISSON| Poisson solver converged in 2 iterations.
     2 Broy./Diag. 0.30E+00   13.2     0.21340922     -5670.6384212507  2.34E-01
  POISSON|   iter        pres error      nabs error        E_hartree    delta E
  POISSON|      1        0.9284E-04      0.4621E-03    1992.4575018440  0.18E+00
  POISSON|      2        0.1491E-16      0.9284E-04    1992.4579434663  0.44E-03
  POISSON| Poisson solver converged in 2 iterations.
     3 Broy./Diag. 0.30E+00   13.2     0.16094760     -5675.6898006251 -5.05E+00
  POISSON|   iter        pres error      nabs error        E_hartree    delta E
  POISSON|      1        0.8914E-04      0.3601E-03    1992.4977725211  0.40E-01
  POISSON|      2        0.7112E-16      0.8914E-04    1992.4973485093 -0.42E-03
  POISSON| Poisson solver converged in 2 iterations.
     4 Broy./Diag. 0.30E+00   13.3     0.16089129     -5672.7996920998  2.89E+00
  POISSON|   iter        pres error      nabs error        E_hartree    delta E
  POISSON|      1        0.3763E-04      0.1500E-03    1992.6031052818  0.11E+00
  POISSON|      2        0.2299E-16      0.3763E-04    1992.6032842741  0.18E-03
  POISSON| Poisson solver converged in 2 iterations.
     5 Broy./Diag. 0.30E+00   13.3     0.08327827     -5672.5598029146  2.40E-01
  POISSON|   iter        pres error      nabs error        E_hartree    delta E
  POISSON|      1        0.2544E-05      0.4101E-04    1992.6987096225  0.95E-01
  POISSON|      2        0.2154E-17      0.2544E-05    1992.6986975205 -0.12E-04
  POISSON| Poisson solver converged in 2 iterations.
     6 Broy./Diag. 0.30E+00   13.3     0.03564447     -5672.7267598070 -1.67E-01
  POISSON|   iter        pres error      nabs error        E_hartree    delta E
  POISSON|      1        0.3777E-05      0.3573E-04    1992.8029669967  0.10E+00
  POISSON|      2        0.4265E-18      0.3777E-05    1992.8029490315 -0.18E-04
  POISSON| Poisson solver converged in 2 iterations.
     7 Broy./Diag. 0.30E+00   13.4     0.02228249     -5672.3101040874  4.17E-01
  POISSON|   iter        pres error      nabs error        E_hartree    delta E
  POISSON|      1        0.6420E-06      0.3334E-04    1992.8653552513  0.62E-01
  POISSON|      2        0.8144E-17      0.6420E-06    1992.8653583051  0.31E-05
  POISSON| Poisson solver converged in 2 iterations.
     8 Broy./Diag. 0.30E+00   13.3     0.01803165     -5672.0827203093  2.27E-01
  POISSON|   iter        pres error      nabs error        E_hartree    delta E
  POISSON|      1        0.5964E-06      0.1056E-04    1992.8902617355  0.25E-01
  POISSON|      2        0.6030E-17      0.5964E-06    1992.8902645726  0.28E-05
  POISSON| Poisson solver converged in 2 iterations.
     9 Broy./Diag. 0.30E+00   13.4     0.00908134     -5672.3568813194 -2.74E-01
  POISSON|   iter        pres error      nabs error        E_hartree    delta E
  POISSON|      1        0.2736E-06      0.5560E-05    1992.9025913591  0.12E-01
  POISSON|      2        0.1083E-17      0.2736E-06    1992.9025926608  0.13E-05
  POISSON| Poisson solver converged in 2 iterations.
    10 Broy./Diag. 0.30E+00   13.5     0.00427340     -5672.2703969456  8.65E-02
  POISSON|   iter        pres error      nabs error        E_hartree    delta E
  POISSON|      1        0.6138E-08      0.4706E-05    1992.9107511748  0.82E-02
  POISSON| Poisson solver converged in 1 iteration. 
    11 Broy./Diag. 0.30E+00   12.2     0.00436713     -5672.2421775574  2.82E-02
  POISSON|   iter        pres error      nabs error        E_hartree    delta E
  POISSON|      1        0.3239E-06      0.5717E-05    1992.9174460096  0.67E-02
  POISSON|      2        0.3055E-17      0.3239E-06    1992.9174444689 -0.15E-05
  POISSON| Poisson solver converged in 2 iterations.
    12 Broy./Diag. 0.30E+00   13.5     0.00314127     -5672.2238092566  1.84E-02
  POISSON|   iter        pres error      nabs error        E_hartree    delta E
  POISSON|      1        0.4399E-07      0.3308E-05    1992.9232458624  0.58E-02
  POISSON|      2        0.1049E-18      0.4399E-07    1992.9232456532 -0.21E-06
  POISSON| Poisson solver converged in 2 iterations.
    13 Broy./Diag. 0.30E+00   13.5     0.00171008     -5672.2554939807 -3.17E-02
  POISSON|   iter        pres error      nabs error        E_hartree    delta E
  POISSON|      1        0.5149E-10      0.1341E-05    1992.9242156056  0.97E-03
  POISSON| Poisson solver converged in 1 iteration. 
    14 Broy./Diag. 0.30E+00   12.1     0.00089580     -5672.2459373276  9.56E-03
  POISSON|   iter        pres error      nabs error        E_hartree    delta E
  POISSON|      1        0.6980E-06      0.3312E-05    1992.9246351973  0.42E-03
  POISSON|      2        0.2534E-17      0.6980E-06    1992.9246318771 -0.33E-05
  POISSON| Poisson solver converged in 2 iterations.
    15 Broy./Diag. 0.30E+00   13.4     0.00154279     -5672.2414160960  4.52E-03
  POISSON|   iter        pres error      nabs error        E_hartree    delta E
  POISSON|      1        0.6498E-06      0.2677E-05    1992.9247099241  0.78E-04
  POISSON|      2        0.6508E-17      0.6498E-06    1992.9247130153  0.31E-05
  POISSON| Poisson solver converged in 2 iterations.
    16 Broy./Diag. 0.30E+00   13.5     0.00181873     -5672.2435678149 -2.15E-03
  POISSON|   iter        pres error      nabs error        E_hartree    delta E
  POISSON|      1        0.1441E-06      0.1707E-05    1992.9247551523  0.42E-04
  POISSON|      2        0.6376E-18      0.1441E-06    1992.9247544668 -0.69E-06
  POISSON| Poisson solver converged in 2 iterations.
    17 Broy./Diag. 0.30E+00   13.5     0.00060181     -5672.2502506339 -6.68E-03
  POISSON|   iter        pres error      nabs error        E_hartree    delta E
  POISSON|      1        0.9184E-07      0.1372E-05    1992.9250971754  0.34E-03
  POISSON|      2        0.1391E-17      0.9184E-07    1992.9250967386 -0.44E-06
  POISSON| Poisson solver converged in 2 iterations.
    18 Broy./Diag. 0.30E+00   13.5     0.00033016     -5672.2484494084  1.80E-03
  POISSON|   iter        pres error      nabs error        E_hartree    delta E
  POISSON|      1        0.2415E-07      0.1212E-05    1992.9253111934  0.21E-03
  POISSON|      2        0.6145E-17      0.2415E-07    1992.9253110786 -0.11E-06
  POISSON| Poisson solver converged in 2 iterations.
    19 Broy./Diag. 0.30E+00   13.5     0.00018547     -5672.2474573857  9.92E-04
  POISSON|   iter        pres error      nabs error        E_hartree    delta E
  POISSON|      1        0.4626E-07      0.7808E-06    1992.9255104256  0.20E-03
  POISSON|      2        0.1604E-17      0.4626E-07    1992.9255102055 -0.22E-06
  POISSON| Poisson solver converged in 2 iterations.
    20 Broy./Diag. 0.30E+00   13.5     0.00019854     -5672.2501183744 -2.66E-03
  POISSON|   iter        pres error      nabs error        E_hartree    delta E
  POISSON|      1        0.5280E-08      0.9166E-06    1992.9259382489  0.43E-03
  POISSON| Poisson solver converged in 1 iteration. 
    21 Broy./Diag. 0.30E+00   12.1     0.00019566     -5672.2499075889  2.11E-04
  POISSON|   iter        pres error      nabs error        E_hartree    delta E
  POISSON|      1        0.2995E-07      0.1131E-05    1992.9263837893  0.45E-03
  POISSON|      2        0.2481E-17      0.2995E-07    1992.9263836469 -0.14E-06
  POISSON| Poisson solver converged in 2 iterations.
    22 Broy./Diag. 0.30E+00   13.5     0.00020423     -5672.2486640359  1.24E-03
  POISSON|   iter        pres error      nabs error        E_hartree    delta E
  POISSON|      1        0.3264E-07      0.8147E-06    1992.9266369034  0.25E-03
  POISSON|      2        0.6402E-18      0.3264E-07    1992.9266367481 -0.16E-06
  POISSON| Poisson solver converged in 2 iterations.
    23 Broy./Diag. 0.30E+00   13.5     0.00013802     -5672.2475990437  1.06E-03
  POISSON|   iter        pres error      nabs error        E_hartree    delta E
  POISSON|      1        0.6382E-08      0.7001E-06    1992.9268626462  0.23E-03
  POISSON| Poisson solver converged in 1 iteration. 
    24 Broy./Diag. 0.30E+00   12.1     0.00011378     -5672.2495652936 -1.97E-03
  POISSON|   iter        pres error      nabs error        E_hartree    delta E
  POISSON|      1        0.2458E-07      0.6065E-06    1992.9270529008  0.19E-03
  POISSON|      2        0.1189E-17      0.2458E-07    1992.9270530177  0.12E-06
  POISSON| Poisson solver converged in 2 iterations.
    25 Broy./Diag. 0.30E+00   13.5     0.00013010     -5672.2492836066  2.82E-04
  POISSON|   iter        pres error      nabs error        E_hartree    delta E
  POISSON|      1        0.9740E-07      0.3930E-06    1992.9270683412  0.15E-04
  POISSON|      2        0.4416E-18      0.9740E-07    1992.9270678778 -0.46E-06
  POISSON| Poisson solver converged in 2 iterations.
    26 Broy./Diag. 0.30E+00   13.5     0.00026604     -5672.2486868267  5.97E-04
  POISSON|   iter        pres error      nabs error        E_hartree    delta E
  POISSON|      1        0.3451E-07      0.1032E-05    1992.9272023209  0.13E-03
  POISSON|      2        0.1823E-17      0.3451E-07    1992.9272024851  0.16E-06
  POISSON| Poisson solver converged in 2 iterations.
    27 Broy./Diag. 0.30E+00   13.5     0.00018059     -5672.2478821245  8.05E-04
  POISSON|   iter        pres error      nabs error        E_hartree    delta E
  POISSON|      1        0.4850E-09      0.4606E-06    1992.9272348670  0.32E-04
  POISSON| Poisson solver converged in 1 iteration. 
    28 Broy./Diag. 0.30E+00   12.1     0.00007185     -5672.2493029064 -1.42E-03
  POISSON|   iter        pres error      nabs error        E_hartree    delta E
  POISSON|      1        0.1457E-07      0.4863E-06    1992.9272645739  0.30E-04
  POISSON|      2        0.6947E-18      0.1457E-07    1992.9272645046 -0.69E-07
  POISSON| Poisson solver converged in 2 iterations.
    29 Broy./Diag. 0.30E+00   13.5     0.00005344     -5672.2495351995 -2.32E-04
  POISSON|   iter        pres error      nabs error        E_hartree    delta E
  POISSON|      1        0.3412E-08      0.3505E-06    1992.9272368353 -0.28E-04
  POISSON| Poisson solver converged in 1 iteration. 
    30 Broy./Diag. 0.30E+00   12.1     0.00004081     -5672.2491776914  3.58E-04
  POISSON|   iter        pres error      nabs error        E_hartree    delta E
  POISSON|      1        0.8506E-08      0.3910E-06    1992.9271969835 -0.40E-04
  POISSON| Poisson solver converged in 1 iteration. 
    31 Broy./Diag. 0.30E+00   12.1     0.00003950     -5672.2494372068 -2.60E-04
  POISSON|   iter        pres error      nabs error        E_hartree    delta E
  POISSON|      1        0.3835E-09      0.4398E-06    1992.9271699441 -0.27E-04
  POISSON| Poisson solver converged in 1 iteration. 
    32 Broy./Diag. 0.30E+00   12.0     0.00004681     -5672.2498358485 -3.99E-04
  POISSON|   iter        pres error      nabs error        E_hartree    delta E
  POISSON|      1        0.5723E-08      0.1908E-06    1992.9271562185 -0.14E-04
  POISSON| Poisson solver converged in 1 iteration. 
    33 Broy./Diag. 0.30E+00   12.0     0.00003856     -5672.2499804565 -1.45E-04
  POISSON|   iter        pres error      nabs error        E_hartree    delta E
  POISSON|      1        0.6150E-08      0.2664E-06    1992.9271595236  0.33E-05
  POISSON| Poisson solver converged in 1 iteration. 
    34 Broy./Diag. 0.30E+00   12.1     0.00003194     -5672.2494261573  5.54E-04
  POISSON|   iter        pres error      nabs error        E_hartree    delta E
  POISSON|      1        0.6536E-08      0.1783E-06    1992.9271743435  0.15E-04
  POISSON| Poisson solver converged in 1 iteration. 
    35 Broy./Diag. 0.30E+00   12.0     0.00003013     -5672.2497707183 -3.45E-04
  POISSON|   iter        pres error      nabs error        E_hartree    delta E
  POISSON|      1        0.2431E-07      0.1050E-06    1992.9271710559 -0.33E-05
  POISSON|      2        0.3114E-17      0.2431E-07    1992.9271711715  0.12E-06
  POISSON| Poisson solver converged in 2 iterations.
    36 Broy./Diag. 0.30E+00   13.5     0.00006693     -5672.2499110437 -1.40E-04
  POISSON|   iter        pres error      nabs error        E_hartree    delta E
  POISSON|      1        0.1312E-07      0.1831E-06    1992.9272220097  0.51E-04
  POISSON|      2        0.9147E-18      0.1312E-07    1992.9272219473 -0.62E-07
  POISSON| Poisson solver converged in 2 iterations.
    37 Broy./Diag. 0.30E+00   13.5     0.00004795     -5672.2499364971 -2.55E-05
  POISSON|   iter        pres error      nabs error        E_hartree    delta E
  POISSON|      1        0.5256E-09      0.1583E-06    1992.9272593420  0.37E-04
  POISSON| Poisson solver converged in 1 iteration. 
    38 Broy./Diag. 0.30E+00   12.1     0.00001595     -5672.2495550718  3.81E-04
  POISSON|   iter        pres error      nabs error        E_hartree    delta E
  POISSON|      1        0.2876E-08      0.1086E-06    1992.9272903730  0.31E-04
  POISSON| Poisson solver converged in 1 iteration. 
    39 Broy./Diag. 0.30E+00   12.1     0.00001542     -5672.2495661248 -1.11E-05
  POISSON|   iter        pres error      nabs error        E_hartree    delta E
  POISSON|      1        0.2284E-08      0.1261E-06    1992.9273314653  0.41E-04
  POISSON| Poisson solver converged in 1 iteration. 
    40 Broy./Diag. 0.30E+00   12.1     0.00001675     -5672.2496634864 -9.74E-05
  POISSON|   iter        pres error      nabs error        E_hartree    delta E
  POISSON|      1        0.2302E-08      0.9053E-07    1992.9273566197  0.25E-04
  POISSON| Poisson solver converged in 1 iteration. 
    41 Broy./Diag. 0.30E+00   12.1     0.00001212     -5672.2495306432  1.33E-04
  POISSON|   iter        pres error      nabs error        E_hartree    delta E
  POISSON|      1        0.4600E-09      0.9929E-07    1992.9273686790  0.12E-04
  POISSON| Poisson solver converged in 1 iteration. 
    42 Broy./Diag. 0.30E+00   12.1     0.00000973     -5672.2494698327  6.08E-05
  POISSON|   iter        pres error      nabs error        E_hartree    delta E
  POISSON|      1        0.5496E-09      0.9356E-07    1992.9273682242 -0.45E-06
  POISSON| Poisson solver converged in 1 iteration. 
    43 Broy./Diag. 0.30E+00   12.1     0.00001022     -5672.2495014436 -3.16E-05
  POISSON|   iter        pres error      nabs error        E_hartree    delta E
  POISSON|      1        0.2516E-08      0.6916E-07    1992.9273661664 -0.21E-05
  POISSON| Poisson solver converged in 1 iteration. 
    44 Broy./Diag. 0.30E+00   12.1     0.00001123     -5672.2496329903 -1.32E-04
  POISSON|   iter        pres error      nabs error        E_hartree    delta E
  POISSON|      1        0.1398E-08      0.7464E-07    1992.9273543079 -0.12E-04
  POISSON| Poisson solver converged in 1 iteration. 
    45 Broy./Diag. 0.30E+00   12.1     0.00000830     -5672.2495299191  1.03E-04
  POISSON|   iter        pres error      nabs error        E_hartree    delta E
  POISSON|      1        0.6821E-08      0.3527E-07    1992.9273552438  0.94E-06
  POISSON| Poisson solver converged in 1 iteration. 
    46 Broy./Diag. 0.30E+00   12.0     0.00002117     -5672.2495354430 -5.52E-06
  POISSON|   iter        pres error      nabs error        E_hartree    delta E
  POISSON|      1        0.5589E-08      0.8164E-07    1992.9273379801 -0.17E-04
  POISSON| Poisson solver converged in 1 iteration. 
    47 Broy./Diag. 0.30E+00   12.1     0.00001819     -5672.2495356765 -2.34E-07
  POISSON|   iter        pres error      nabs error        E_hartree    delta E
  POISSON|      1        0.2287E-10      0.5586E-07    1992.9273279452 -0.10E-04
  POISSON| Poisson solver converged in 1 iteration. 
    48 Broy./Diag. 0.30E+00   12.1     0.00000643     -5672.2496411494 -1.05E-04
  POISSON|   iter        pres error      nabs error        E_hartree    delta E
  POISSON|      1        0.3978E-09      0.3529E-07    1992.9273198246 -0.81E-05
  POISSON| Poisson solver converged in 1 iteration. 
    49 Broy./Diag. 0.30E+00   12.1     0.00000595     -5672.2496121987  2.90E-05
  POISSON|   iter        pres error      nabs error        E_hartree    delta E
  POISSON|      1        0.1912E-08      0.6270E-07    1992.9273122799 -0.75E-05
  POISSON| Poisson solver converged in 1 iteration. 
    50 Broy./Diag. 0.30E+00   12.1     0.00000654     -5672.2495726648  3.95E-05
  POISSON|   iter        pres error      nabs error        E_hartree    delta E
  POISSON|      1        0.1609E-09      0.3602E-07    1992.9273086761 -0.36E-05
  POISSON| Poisson solver converged in 1 iteration. 
    51 Broy./Diag. 0.30E+00   12.1     0.00000431     -5672.2496169382 -4.43E-05
  POISSON|   iter        pres error      nabs error        E_hartree    delta E
  POISSON|      1        0.8897E-09      0.2993E-07    1992.9273111415  0.25E-05
  POISSON| Poisson solver converged in 1 iteration. 
    52 Broy./Diag. 0.30E+00   12.1     0.00000366     -5672.2496161030  8.35E-07
  POISSON|   iter        pres error      nabs error        E_hartree    delta E
  POISSON|      1        0.7756E-09      0.4646E-07    1992.9273190268  0.79E-05
  POISSON| Poisson solver converged in 1 iteration. 
    53 Broy./Diag. 0.30E+00   12.2     0.00000333     -5672.2495799692  3.61E-05
  POISSON|   iter        pres error      nabs error        E_hartree    delta E
  POISSON|      1        0.5028E-09      0.2008E-07    1992.9273238722  0.48E-05
  POISSON| Poisson solver converged in 1 iteration. 
    54 Broy./Diag. 0.30E+00   12.1     0.00000415     -5672.2495469072  3.31E-05
  POISSON|   iter        pres error      nabs error        E_hartree    delta E
  POISSON|      1        0.6786E-09      0.2966E-07    1992.9273327904  0.89E-05
  POISSON| Poisson solver converged in 1 iteration. 
    55 Broy./Diag. 0.30E+00   12.0     0.00000336     -5672.2495866792 -3.98E-05
  POISSON|   iter        pres error      nabs error        E_hartree    delta E
  POISSON|      1        0.1530E-08      0.1360E-07    1992.9273343096  0.15E-05
  POISSON| Poisson solver converged in 1 iteration. 
    56 Broy./Diag. 0.30E+00   12.1     0.00000453     -5672.2495649752  2.17E-05
  POISSON|   iter        pres error      nabs error        E_hartree    delta E
  POISSON|      1        0.7672E-09      0.1879E-07    1992.9273394700  0.52E-05
  POISSON| Poisson solver converged in 1 iteration. 
    57 Broy./Diag. 0.30E+00   12.1     0.00000389     -5672.2495515730  1.34E-05
  POISSON|   iter        pres error      nabs error        E_hartree    delta E
  POISSON|      1        0.7910E-09      0.1485E-07    1992.9273421147  0.26E-05
  POISSON| Poisson solver converged in 1 iteration. 
    58 Broy./Diag. 0.30E+00   12.1     0.00000262     -5672.2495414548  1.01E-05
  POISSON|   iter        pres error      nabs error        E_hartree    delta E
  POISSON|      1        0.4554E-09      0.1272E-07    1992.9273436801  0.16E-05
  POISSON| Poisson solver converged in 1 iteration. 
    59 Broy./Diag. 0.30E+00   12.1     0.00000176     -5672.2495576938 -1.62E-05
  POISSON|   iter        pres error      nabs error        E_hartree    delta E
  POISSON|      1        0.1425E-09      0.1105E-07    1992.9273447341  0.11E-05
  POISSON| Poisson solver converged in 1 iteration. 
    60 Broy./Diag. 0.30E+00   12.1     0.00000201     -5672.2495696002 -1.19E-05
  POISSON|   iter        pres error      nabs error        E_hartree    delta E
  POISSON|      1        0.4417E-09      0.1082E-07    1992.9273445491 -0.19E-06
  POISSON| Poisson solver converged in 1 iteration. 
    61 Broy./Diag. 0.30E+00   12.1     0.00000114     -5672.2495560456  1.36E-05
  POISSON|   iter        pres error      nabs error        E_hartree    delta E
  POISSON|      1        0.6968E-10      0.9011E-08    1992.9273431520 -0.14E-05
  POISSON| Poisson solver converged in 1 iteration. 
    62 Broy./Diag. 0.30E+00   12.1     0.00000108     -5672.2495633317 -7.29E-06
  POISSON|   iter        pres error      nabs error        E_hartree    delta E
  POISSON|      1        0.3805E-09      0.1472E-07    1992.9273407368 -0.24E-05
  POISSON| Poisson solver converged in 1 iteration. 
    63 Broy./Diag. 0.30E+00   12.2     0.00000097     -5672.2495740532 -1.07E-05

  *** SCF run converged in    63 steps ***


  Electronic density on regular grids:      -2159.9999999992        0.0000000008
  Core density on regular grids:             2159.9999999995       -0.0000000005
  Total charge density on r-space grids:        0.0000000003
  Total charge density g-space grids:           0.0000000003

  Overlap energy of the core charge distribution:               0.00003272952762
  Self energy of the core charge distribution:              -9891.63555570741482
  Core Hamiltonian energy:                                   3202.32815649390977
  Hartree energy:                                            1992.92734073680845
  Electric enthalpy:                                         1992.92038135286907
  Exchange-correlation energy:                               -971.13648474225420
  Dispersion energy:                                           -4.69415587035426
  Electronic entropic energy:                                  -0.03194830773227
  Fermi energy:                                                -0.18958253163736

  Total energy:                                             -5672.24957405319583

 The electron density is written in cube file format to the file:

 cp2k-ELECTRON_DENSITY-1_0.cube

 !-----------------------------------------------------------------------------!
                     Mulliken Population Analysis

 #  Atom  Element  Kind  Atomic population                           Net charge
       1     Pt       1         10.066921                             -0.066921
       2     Pt       1         10.028296                             -0.028296
       3     Pt       1         10.052388                             -0.052388
       4     Pt       1         10.045800                             -0.045800
       5     Pt       1         10.028943                             -0.028943
       6     Pt       1         10.047115                             -0.047115
       7     Pt       1         10.060931                             -0.060931
       8     Pt       1         10.049929                             -0.049929
       9     Pt       1         10.063031                             -0.063031
      10     Pt       1         10.059025                             -0.059025
      11     Pt       1         10.028981                             -0.028981
      12     Pt       1         10.048659                             -0.048659
      13     Pt       1         10.041037                             -0.041037
      14     Pt       1         10.037167                             -0.037167
      15     Pt       1         10.047745                             -0.047745
      16     Pt       1         10.050438                             -0.050438
      17     Pt       1         10.038534                             -0.038534
      18     Pt       1         10.056153                             -0.056153
      19     Pt       1         10.046379                             -0.046379
      20     Pt       1         10.015962                             -0.015962
      21     Pt       1         10.039635                             -0.039635
[...]
    191      1      Pt          0.00893810     0.00397520     0.01670040
    192      1      Pt         -0.01163596     0.00772992     0.00208834
    193      1      Pt         -0.00645283    -0.00973202     0.00134487
    194      1      Pt         -0.00131701     0.00774970    -0.01562479
    195      1      Pt         -0.00255904     0.03343498     0.00997475
    196      1      Pt          0.01824179     0.00517741     0.00781066
    197      1      Pt         -0.00046441     0.00407147    -0.00122544
    198      1      Pt          0.00633792    -0.01153828     0.01102534
    199      1      Pt          0.00926809     0.00377749     0.00053971
    200      1      Pt         -0.00909090     0.00603537    -0.00685221
    201      1      Pt          0.00710494    -0.00381538    -0.00116761
    202      1      Pt         -0.00331498    -0.00194652     0.00721194
    203      1      Pt         -0.01601478     0.00513474    -0.00687174
    204      1      Pt          0.00729466     0.01121141    -0.00123087
    205      1      Pt          0.01654134    -0.00325753    -0.00075198
    206      1      Pt          0.01070106    -0.00455590    -0.01128665
    207      1      Pt         -0.00334122    -0.00531435    -0.00330185
    208      1      Pt          0.01602250    -0.00792558     0.00598655
    209      1      Pt          0.00789999    -0.00623716    -0.00779582
    210      1      Pt         -0.01446159    -0.00734580     0.00352393
    211      1      Pt          0.00052488     0.00346148    -0.01010276
    212      1      Pt         -0.00672267    -0.00642491     0.00141250
    213      1      Pt         -0.00669715     0.01270969    -0.00926213
    214      1      Pt         -0.01883659     0.01560652     0.01209381
    215      1      Pt          0.00149849    -0.00080958     0.00882702
    216      1      Pt         -0.00076908     0.00795307     0.00613418
 SUM OF ATOMIC FORCES           0.00001368    -0.00000680     0.00005760     0.00005960

 -------------------------------------------------------------------------------
 -                                                                             -
 -                                DBCSR STATISTICS                             -
 -                                                                             -
 -------------------------------------------------------------------------------
 COUNTER                                    TOTAL       BLAS       SMM       ACC
 flops    20 x    12 x    20            447897600       0.0%    100.0%      0.0%
 flops    20 x    32 x    20          58525286400       0.0%    100.0%      0.0%
 flops    20 x    20 x   204         248609088000       0.0%    100.0%      0.0%
 flops    20 x    20 x   224         272982528000       0.0%    100.0%      0.0%
 flops    20 x    20 x   192        1403910144000       0.0%    100.0%      0.0%
 flops inhomo. stacks                           0       0.0%      0.0%      0.0%
 flops total                         1.984475E+12       0.0%    100.0%      0.0%
 flops max/rank                     63.687885E+09       0.0%    100.0%      0.0%
 matmuls inhomo. stacks                         0       0.0%      0.0%      0.0%
 matmuls total                           14519520       0.0%    100.0%      0.0%
 number of processed stacks                 19072       0.0%    100.0%      0.0%
 average stack size                                     0.0     761.3       0.0
 marketing flops                     2.825188E+12
 -------------------------------------------------------------------------------
 # multiplications                             66
 max memory usage/rank               1.795797E+09
 # max total images/rank                        2
 # max 3D layers                                1
 # MPI messages exchanged                   27456
 MPI messages size (bytes):
  total size                        36.702028E+09
  min size                         829.440000E+03
  max size                           4.665600E+06
  average size                       1.336758E+06
 MPI breakdown and total messages size (bytes):
             size <=      128                   0                        0
       128 < size <=     8192                   0                        0
      8192 < size <=    32768                   0                        0
     32768 < size <=   131072                   0                        0
    131072 < size <=  4194304               27232              35656934400
   4194304 < size <= 16777216                 224               1045094400
  16777216 < size                               0                        0
 -------------------------------------------------------------------------------

 *** WARNING in dbcsr_mm.F:290 :: Using a non-square number of MPI ranks ***
 *** might lead to poor performance. Used ranks: 32 Suggested: 36 64     ***

 -------------------------------------------------------------------------------
 -                                                                             -
 -                      DBCSR MESSAGE PASSING PERFORMANCE                      -
 -                                                                             -
 -------------------------------------------------------------------------------
 ROUTINE             CALLS      AVE VOLUME [Bytes]
 MP_Bcast                6                     12.
 MP_Allreduce          485                      9.
 MP_Alltoall          1829                1275340.
 MP_ISend             2112                 578495.
 MP_IRecv             2112                 561506.
 -------------------------------------------------------------------------------

 -------------------------------------------------------------------------------
 -                                                                             -
 -                                DBM STATISTICS                               -
 -                                                                             -
 -------------------------------------------------------------------------------
    M  x    N  x    K                                          COUNT     PERCENT
 -------------------------------------------------------------------------------

 -------------------------------------------------------------------------------
 -                                                                             -
 -                                GRID STATISTICS                              -
 -                                                                             -
 -------------------------------------------------------------------------------
 LP    KERNEL             BACKEND                              COUNT     PERCENT
 4     collocate general  REF                               21799808      49.97%
 4     integrate general  REF                               21459186      49.19%
 5     integrate general  REF                                 340622       0.78%
 0     collocate general  REF                                  13824       0.03%
 0     integrate general  REF                                   6912       0.02%
 1     integrate general  REF                                   6912       0.02%
 -------------------------------------------------------------------------------

 MEMORY| Estimated peak process memory [MiB]                                2113

 -------------------------------------------------------------------------------
 ----                             MULTIGRID INFO                            ----
 -------------------------------------------------------------------------------
 count for grid        1:          17574          cutoff [a.u.]          200.00
 count for grid        2:         177687          cutoff [a.u.]           66.67
 count for grid        3:         109688          cutoff [a.u.]           22.22
 count for grid        4:         155326          cutoff [a.u.]            7.41
 total gridlevel count  :         460275

 -------------------------------------------------------------------------------
 -                                                                             -
 -                         MESSAGE PASSING PERFORMANCE                         -
 -                                                                             -
 -------------------------------------------------------------------------------

 ROUTINE             CALLS      AVE VOLUME [Bytes]
 MP_Group                4
 MP_Bcast             1770                 164528.
 MP_Allreduce         1604                   1576.
 MP_Sync                69
 MP_Alltoall          3105               49300750.
 MP_SendRecv           124                  14994.
 MP_ISendRecv         7936                 214800.
 MP_Wait             19240
 MP_comm_split           1
 MP_ISend            10136                 715003.
 MP_IRecv            10136                 715003.
 MP_Recv               192                1105920.
 MP_Write_All            3                4213860.
 -------------------------------------------------------------------------------


 -------------------------------------------------------------------------------
 -                                                                             -
 -                           R E F E R E N C E S                               -
 -                                                                             -
 -------------------------------------------------------------------------------
 
 CP2K version 2022.1, the CP2K developers group (2022).
 CP2K is freely available from https://www.cp2k.org/ .

 Kuehne,Thomas D.; Iannuzzi,Marcella; Del Ben,Mauro;
 Rybkin,Vladimir V.; Seewald,Patrick; Stein,Frederick; Laino,Teodoro;
 Khaliullin,Rustam Z.; Schuett,Ole; Schiffmann,Florian; Golze,Dorothea;
 Wilhelm,Jan; Chulkov,Sergey; Bani-Hashemian,Mohammad Hossein;
 Weber,Valery; Borstnik,Urban; Taillefumier,Mathieu;
 Jakobovits,Alice Shoshana; Lazzaro,Alfio; Pabst,Hans; Mueller,Tiziano;
 Schade,Robert; Guidon,Manuel; Andermatt,Samuel; Holmberg,Nico;
 Schenter,Gregory K.; Hehn,Anna; Bussy,Augustin; Belleflamme,Fabian;
 Tabacchi,Gloria; Gloess,Andreas; Lass,Michael; Bethune,Iain;
 Mundy,Christopher J.; Plessl,Christian; Watkins,Matt;
 VandeVondele,Joost; Krack,Matthias; Hutter,Juerg. 
 The Journal of Chemical Physics, 152 (19), (2020). 
 CP2K: An electronic structure and molecular dynamics software package -
 Quickstep: Efficient and accurate electronic structure calculations.
 https://doi.org/10.1063/5.0007045

 Goerigk, Lars; Hansen, Andreas; Bauer, Christoph; Ehrlich, Stephan;
 Najibi, Asim; Grimme, Stefan. , 19 (48), (2017). 
 A look at the density functional theory zoo with the advanced GMTKN55 database
 for general main group thermochemistry, kinetics and noncovalent interactions.
 https://doi.org/10.1039/C7CP04913G

 Bani-Hashemian, MH; Bruck, S; Luisier, M; VandeVondele, J. 
 JOURNAL OF CHEMICAL PHYSICS, 144 (4), 044113 (2016). 
 A generalized Poisson solver for first-principles device simulations.
 https://doi.org/10.1063/1.4940796

 Schuett, Ole; Messmer, Peter; Hutter, Juerg; VandeVondele, Joost. 
 Electronic Structure Calculations on Graphics Processing Units, John
 Wiley & Sons, Ltd, 173-190 (2016). 
 GPU-Accelerated Sparse Matrix-Matrix Multiplication for
 Linear Scaling Density Functional Theory.
 https://doi.org/10.1002/9781118670712.ch8

 Heinecke, A; Henry, G; Hutchinson, M; Pabst, H. 
 Proceedings of Intl. Supercomputing Conference, 981-991 (2016). 
 LIBXSMM: Accelerating Small Matrix Multiplications
 by Runtime Code Generation.
 https://doi.org/10.1109/SC.2016.83

 Borstnik, U; VandeVondele, J; Weber, V; Hutter, J. 
 PARALLEL COMPUTING, 40 (5-6), 47-58 (2014). 
 Sparse matrix multiplication: The distributed block-compressed sparse
 row library.
 https://doi.org/10.1016/j.parco.2014.03.012

 Hutter, J; Iannuzzi, M; Schiffmann, F; VandeVondele, J. 
 WIREs Comput Mol Sci., 4 (1), 15-25 (2014). 
 CP2K: atomistic simulations of condensed matter systems.
 https://doi.org/10.1002/wcms.1159

 Marek, A; Blum, V; Johanni, R; Havu, V; Lang, B; Auckenthaler, T;
 Heinecke, A; Bungartz, H; Lederer, H. 
 Journal of Physics: Condensed Matter, 26 (21), (2014). 
 The ELPA library: scalable parallel eigenvalue solutions for
 electronic structure
 theory and computational science.
 https://doi.org/10.1088/0953-8984/26/21/213201

 Grimme, S; Ehrlich, S; Goerigk, L. 
 JOURNAL OF COMPUTATIONAL CHEMISTRY, 32, 1456 (2011). 
 Effect of the damping function in dispersion corrected density functional theory.
 https://doi.org/10.1002/jcc.21759

 Grimme, S; Antony, J; Ehrlich, S; Krieg, H. 
 JOURNAL OF CHEMICAL PHYSICS, 132 (15), 154104 (2010). 
 A consistent and accurate ab initio parametrization of density
 functional dispersion correction (DFT-D) for the 94 elements H-Pu.
 https://doi.org/10.1063/1.3382344

 VandeVondele, J; Hutter, J. 
 JOURNAL OF CHEMICAL PHYSICS, 127 (11), 114105 (2007). 
 Gaussian basis sets for accurate calculations on molecular systems in
 gas and condensed phases.
 https://doi.org/10.1063/1.2770708

 Krack, M. 
 THEORETICAL CHEMISTRY ACCOUNTS, 114 (1-3), 145-152 (2005). 
 Pseudopotentials for H to Kr optimized for gradient-corrected
 exchange-correlation functionals.
 https://doi.org/10.1007/s00214-005-0655-y

 VandeVondele, J; Krack, M; Mohamed, F; Parrinello, M; Chassaing, T;
 Hutter, J. COMPUTER PHYSICS COMMUNICATIONS, 167 (2), 103-128 (2005). 
 QUICKSTEP: Fast and accurate density functional calculations using a
 mixed Gaussian and plane waves approach.
 https://doi.org/10.1016/j.cpc.2004.12.014

 Frigo, M; Johnson, SG. 
 PROCEEDINGS OF THE IEEE, 93 (2), 216-231 (2005). 
 The design and implementation of FFTW3.
 https://doi.org/10.1109/JPROC.2004.840301

 Hartwigsen, C; Goedecker, S; Hutter, J. 
 PHYSICAL REVIEW B, 58 (7), 3641-3662 (1998). 
 Relativistic separable dual-space Gaussian pseudopotentials from H to Rn.
 https://doi.org/10.1103/PhysRevB.58.3641

 Lippert, G; Hutter, J; Parrinello, M. 
 MOLECULAR PHYSICS, 92 (3), 477-487 (1997). 
 A hybrid Gaussian and plane wave density functional scheme.
 https://doi.org/10.1080/002689797170220

 Perdew, JP; Burke, K; Ernzerhof, M. 
 PHYSICAL REVIEW LETTERS, 77 (18), 3865-3868 (1996). 
 Generalized gradient approximation made simple.
 https://doi.org/10.1103/PhysRevLett.77.3865

 Goedecker, S; Teter, M; Hutter, J. 
 PHYSICAL REVIEW B, 54 (3), 1703-1710 (1996). 
 Separable dual-space Gaussian pseudopotentials.
 https://doi.org/10.1103/PhysRevB.54.1703


 -------------------------------------------------------------------------------
 -                                                                             -
 -                                T I M I N G                                  -
 -                                                                             -
 -------------------------------------------------------------------------------
 SUBROUTINE                       CALLS  ASD         SELF TIME        TOTAL TIME
                                MAXIMUM       AVERAGE  MAXIMUM  AVERAGE  MAXIMUM
 CP2K                                 1  1.0    0.019    0.041  821.530  821.531
 qs_forces                            1  2.0    0.001    0.001  821.118  821.119
 qs_energies                          1  3.0    0.000    0.000  806.915  806.919
 scf_env_do_scf                       1  4.0    0.000    0.000  797.252  797.345
 scf_env_do_scf_inner_loop           63  5.0    0.003    0.006  797.250  797.342
 rebuild_ks_matrix                   64  7.0    0.000    0.000  507.824  507.847
 qs_ks_build_kohn_sham_matrix        64  8.0    0.010    0.011  507.824  507.847
 qs_ks_update_qs_env                 63  6.0    0.001    0.001  498.079  498.101
 pw_transfer                       2962 12.1    0.225    0.280  283.877  286.856
 fft_wrap_pw1pw2                   2962 13.1    0.032    0.036  283.652  286.577
 fft_wrap_pw1pw2_200               2578 14.4   24.306   27.330  280.863  283.698
 pw_poisson_solve                    64  9.0    0.019    0.028  242.217  242.280
 implicit_poisson_solver_mixed_      64 10.0    6.535    7.059  227.586  227.717
 fft3d_ps                          2962 15.1  121.055  130.323  210.896  214.650
 qs_rho_update_rho_low               64  6.0    0.001    0.001  193.114  193.128
 calculate_rho_elec                  64  7.0    0.350    0.375  193.113  193.128
 sum_up_and_integrate                64  9.0    0.997    1.078  181.841  181.884
 integrate_v_rspace                  64 10.0    0.002    0.002  180.844  180.969
 grid_collocate_task_list            64  8.0   85.743  167.105   85.743  167.105
 derive_fft                         310 12.1    0.022    0.026  159.915  161.023
 grid_integrate_task_list            64 11.0   79.314  155.264   79.314  155.264
 rs_pw_transfer                     516 10.5    0.006    0.006  106.644  133.604
 density_rs2pw                       64  8.0    0.004    0.005  105.679  132.643
 apply_P_operator                   246 11.2    2.308    2.702  129.340  130.205
 mp_waitany                       10136 12.4   88.799  115.505   88.799  115.505
 rs_pw_transfer_RS2PW_200            66 10.0    3.691    4.312   87.293  114.242
 mp_alltoall_d11v                   912 10.3   78.086  102.980   78.086  102.980
 rs_gather_matrices                  64 11.0    0.238    0.276   76.904  101.867
 qs_scf_new_mos                      63  6.0    0.001    0.002   78.505   78.628
 qs_vxc_create                       64  9.0    0.002    0.003   75.336   76.257
 xc_vxc_pw_create                    64 10.0    1.705    2.150   75.334   76.255
 eigensolver                         63  7.0    0.006    0.010   70.880   70.981
 x_to_yz                           1854 16.3   40.311   45.447   61.566   65.129
 mp_alltoall_z22v                  2962 17.1   37.963   57.747   37.963   57.747
 xc_pw_derive                       384 12.0    0.007    0.008   50.813   53.858
 apply_poisson_operator_fft          64 11.0    0.001    0.001   48.481   48.762
 cp_fm_diag_elpa                     64  8.0    0.001    0.001   44.983   45.081
 cp_fm_diag_elpa_base                64  9.0   44.039   44.143   44.885   44.951
 xc_rho_set_and_dset_create          64 11.0    0.726    0.909   39.271   40.201
 yz_to_x                           1108 15.8   11.497   12.104   28.205   39.858
 pw_scatter_p                      1854 15.3   31.351   35.773   31.351   35.773
 apply_inv_laplace_operator_fft     157 11.5    1.302    1.410   34.657   35.709
 xc_pw_divergence                    64 11.0    0.004    0.004   33.371   35.258
 ps_implicit_compute_veps            64 11.0    0.770    0.899   33.658   34.344
 gspace_mixing                       62  6.0    0.340    0.363   30.049   30.049
 pw_derive                         1314 13.1   25.202   26.552   25.202   26.552
 cp_fm_triangular_multiply          189  8.0   25.134   25.462   25.134   25.462
 potential_pw2rs                     64 11.0    0.051    0.059   24.613   24.718
 ps_implicit_compute_error_fft       91 10.9    1.693    1.805   22.440   23.955
 broyden_mixing                      62  7.0   22.023   22.317   22.527   22.580
 pw_gather_p                       1108 14.8   16.779   17.606   16.779   17.606
 -------------------------------------------------------------------------------

 The number of warnings for this run is : 1
 
 -------------------------------------------------------------------------------
  **** **** ******  **  PROGRAM ENDED AT                 2023-12-03 01:37:58.687
 ***** ** ***  *** **   PROGRAM RAN ON                                     cu042
 **    ****   ******    PROGRAM RAN BY                                     jxzhu
 ***** **    ** ** **   PROGRAM PROCESS ID                                 59482
  **** **  *******  **  PROGRAM STOPPED IN /public/home/jxzhu/tmp_calc/04c0855f9
                                           8753fac23fde4df51ba20f3741a9e9a/calc/
                                           task.000.000024
