 DBCSR| CPU Multiplication driver                                           XSMM
 DBCSR| Multrec recursion limit                                              512
 DBCSR| Multiplication stack size                                           1000
 DBCSR| Maximum elements for images                                    UNLIMITED
 DBCSR| Multiplicative factor virtual images                                   1
 DBCSR| Use multiplication densification                                       T
 DBCSR| Multiplication size stacks                                             3
 DBCSR| Use memory pool for CPU allocation                                     F
 DBCSR| Number of 3D layers                                               SINGLE
 DBCSR| Use MPI memory allocation                                              F
 DBCSR| Use RMA algorithm                                                      F
 DBCSR| Use Communication thread                                               T
 DBCSR| Communication thread load                                             87
 DBCSR| MPI: My node id                                                        0
 DBCSR| MPI: Number of nodes                                                 128
 DBCSR| OMP: Current number of threads                                         1
 DBCSR| OMP: Max number of threads                                             1
 DBCSR| Split modifier for TAS multiplication algorithm                  1.0E+00


  **** **** ******  **  PROGRAM STARTED AT               2023-12-03 02:41:16.980
 ***** ** ***  *** **   PROGRAM STARTED ON                                 cu001
 **    ****   ******    PROGRAM STARTED BY                                 jxzhu
 ***** **    ** ** **   PROGRAM PROCESS ID                                 46607
  **** **  *******  **  PROGRAM STARTED IN /public/home/jxzhu/tmp_calc/242f4c860
                                           f5b5e6a1d389d48ff6d7f67fef8ff53/calc/
                                           002500.000/search_lo.000000

 CP2K| version string:                                       CP2K version 2022.1
 CP2K| source code revision number:                                  git:2caeb6f
 CP2K| cp2kflags: omp libint fftw3 libxc elpa parallel mpi3 scalapack cosma xsmm
 CP2K|             plumed2 spglib mkl sirius libvori libbqb
 CP2K| is freely available from                            https://www.cp2k.org/
 CP2K| Program compiled at                           Mon Jul 3 17:37:06 CST 2023
 CP2K| Program compiled on                                                 mu003
 CP2K| Program compiled for                                                local
 CP2K| Data directory path                             /public/home/jxzhu/basis/
 CP2K| Input file name                                                 input.inp
 
 GLOBAL| Force Environment number                                              1
 GLOBAL| Basis set file name                                        BASIS_MOLOPT
 GLOBAL| Potential file name                                      GTH_POTENTIALS
 GLOBAL| MM Potential file name                                     MM_POTENTIAL
 GLOBAL| Coordinate file name                                          coord.xyz
 GLOBAL| Method name                                                        CP2K
 GLOBAL| Project name                                                       cp2k
 GLOBAL| Run type                                                   ENERGY_FORCE
 GLOBAL| FFT library                                                       FFTW3
 GLOBAL| Diagonalization library                                            ELPA
 GLOBAL| Minimum number of eigenvectors for ELPA usage                        16
 GLOBAL| Orthonormality check for eigenvectors                          DISABLED
 GLOBAL| Matrix multiplication library                                     COSMA
 GLOBAL| All-to-all communication in single precision                          F
 GLOBAL| FFTs using library dependent lengths                                  T
 GLOBAL| Grid backend                                                       AUTO
 GLOBAL| Global print level                                               MEDIUM
 GLOBAL| MPI I/O enabled                                                       T
 GLOBAL| Total number of message passing processes                           128
 GLOBAL| Number of threads for this process                                    1
 GLOBAL| This output is from process                                           0
 GLOBAL| Stack size for threads created by OpenMP (OMP_STACKSIZE)        default
 GLOBAL| CPU model name                 Intel(R) Xeon(R) Gold 6338 CPU @ 2.00GHz
 GLOBAL| CPUID                                                              1003

 MEMORY| system memory details [Kb]
 MEMORY|                        rank 0           min           max       average
 MEMORY| MemTotal            263619172     263619172     263619172     263619172
 MEMORY| MemFree             218328880     215768212     218328880     217048719
 MEMORY| Buffers                    20            20            36            28
 MEMORY| Cached                1971788        793896       1971788       1382842
 MEMORY| Slab                  1454620       1427052       1454620       1440836
 MEMORY| SReclaimable           242664        231180        242664        236922
 MEMORY| MemLikelyFree       220543352     216793324     220543352     218668511


 *** Fundamental physical constants (SI units) ***

 *** Literature: B. J. Mohr and B. N. Taylor,
 ***             CODATA recommended values of the fundamental physical
 ***             constants: 2006, Web Version 5.1
 ***             http://physics.nist.gov/constants

 Speed of light in vacuum [m/s]                             2.99792458000000E+08
 Magnetic constant or permeability of vacuum [N/A**2]       1.25663706143592E-06
 Electric constant or permittivity of vacuum [F/m]          8.85418781762039E-12
 Planck constant (h) [J*s]                                  6.62606896000000E-34
 Planck constant (h-bar) [J*s]                              1.05457162825177E-34
 Elementary charge [C]                                      1.60217648700000E-19
 Electron mass [kg]                                         9.10938215000000E-31
 Electron g factor [ ]                                     -2.00231930436220E+00
 Proton mass [kg]                                           1.67262163700000E-27
 Fine-structure constant                                    7.29735253760000E-03
 Rydberg constant [1/m]                                     1.09737315685270E+07
 Avogadro constant [1/mol]                                  6.02214179000000E+23
 Boltzmann constant [J/K]                                   1.38065040000000E-23
 Atomic mass unit [kg]                                      1.66053878200000E-27
 Bohr radius [m]                                            5.29177208590000E-11

 *** Conversion factors ***

 [u] -> [a.u.]                                              1.82288848426455E+03
 [Angstrom] -> [Bohr] = [a.u.]                              1.88972613288564E+00
 [a.u.] = [Bohr] -> [Angstrom]                              5.29177208590000E-01
 [a.u.] -> [s]                                              2.41888432650478E-17
 [a.u.] -> [fs]                                             2.41888432650478E-02
 [a.u.] -> [J]                                              4.35974393937059E-18
 [a.u.] -> [N]                                              8.23872205491840E-08
 [a.u.] -> [K]                                              3.15774647902944E+05
 [a.u.] -> [kJ/mol]                                         2.62549961709828E+03
 [a.u.] -> [kcal/mol]                                       6.27509468713739E+02
 [a.u.] -> [Pa]                                             2.94210107994716E+13
 [a.u.] -> [bar]                                            2.94210107994716E+08
 [a.u.] -> [atm]                                            2.90362800883016E+08
 [a.u.] -> [eV]                                             2.72113838565563E+01
 [a.u.] -> [Hz]                                             6.57968392072181E+15
 [a.u.] -> [1/cm] (wave numbers)                            2.19474631370540E+05
 [a.u./Bohr**2] -> [1/cm]                                   5.14048714338585E+03
 

 CELL_TOP| Volume [angstrom^3]:                                     17614.982639
 CELL_TOP| Vector a [angstrom    16.869     0.000     0.000   |a| =    16.869000
 CELL_TOP| Vector b [angstrom    -8.434    14.609     0.000   |b| =    16.869015
 CELL_TOP| Vector c [angstrom     0.000     0.000    71.478   |c| =    71.478000
 CELL_TOP| Angle (b,c), alpha [degree]:                                90.000000
 CELL_TOP| Angle (a,c), beta  [degree]:                                90.000000
 CELL_TOP| Angle (a,b), gamma [degree]:                               119.999970
 CELL_TOP| Numerically orthorhombic:                                          NO
 
 GENERATE|  Preliminary Number of Bonds generated:                             0
 GENERATE|  Achieved consistency in connectivity generation.

 CELL| Volume [angstrom^3]:                                         17614.982639
 CELL| Vector a [angstrom]:      16.869     0.000     0.000   |a| =    16.869000
 CELL| Vector b [angstrom]:      -8.434    14.609     0.000   |b| =    16.869015
 CELL| Vector c [angstrom]:       0.000     0.000    71.478   |c| =    71.478000
 CELL| Angle (b,c), alpha [degree]:                                    90.000000
 CELL| Angle (a,c), beta  [degree]:                                    90.000000
 CELL| Angle (a,b), gamma [degree]:                                   119.999970
 CELL| Numerically orthorhombic:                                              NO

 CELL_REF| Volume [angstrom^3]:                                     17614.982639
 CELL_REF| Vector a [angstrom    16.869     0.000     0.000   |a| =    16.869000
 CELL_REF| Vector b [angstrom    -8.434    14.609     0.000   |b| =    16.869015
 CELL_REF| Vector c [angstrom     0.000     0.000    71.478   |c| =    71.478000
 CELL_REF| Angle (b,c), alpha [degree]:                                90.000000
 CELL_REF| Angle (a,c), beta  [degree]:                                90.000000
 CELL_REF| Angle (a,b), gamma [degree]:                               119.999970
 CELL_REF| Numerically orthorhombic:                                          NO

 *******************************************************************************
 *******************************************************************************
 **                                                                           **
 **     #####                         ##              ##                      **
 **    ##   ##            ##          ##              ##                      **
 **   ##     ##                       ##            ######                    **
 **   ##     ##  ##   ##  ##   #####  ##  ##   ####   ##    #####    #####    **
 **   ##     ##  ##   ##  ##  ##      ## ##   ##      ##   ##   ##  ##   ##   **
 **   ##  ## ##  ##   ##  ##  ##      ####     ###    ##   ######   ######    **
 **    ##  ###   ##   ##  ##  ##      ## ##      ##   ##   ##       ##        **
 **     #######   #####   ##   #####  ##  ##  ####    ##    #####   ##        **
 **           ##                                                    ##        **
 **                                                                           **
 **                                                ... make the atoms dance   **
 **                                                                           **
 **            Copyright (C) by CP2K developers group (2000-2022)             **
 **                      J. Chem. Phys. 152, 194103 (2020)                    **
 **                                                                           **
 *******************************************************************************

 DFT| Spin restricted Kohn-Sham (RKS) calculation                            RKS
 DFT| Multiplicity                                                             1
 DFT| Number of spin states                                                    1
 DFT| Charge                                                                   0
 DFT| Self-interaction correction (SIC)                                       NO
 DFT| Cutoffs: density                                              1.000000E-10
 DFT|          gradient                                             1.000000E-10
 DFT|          tau                                                  1.000000E-10
 DFT|          cutoff_smoothing_range                               0.000000E+00
 DFT| XC density smoothing                                                  NONE
 DFT| XC derivatives                                                          PW

 FUNCTIONAL| PBE:
 FUNCTIONAL| J.P.Perdew, K.Burke, M.Ernzerhof, Phys. Rev. Letter, vol. 77, n 18,
 FUNCTIONAL|  pp. 3865-3868, (1996){spin unpolarized}                           

 vdW POTENTIAL|                                                   Pair Potential
 vdW POTENTIAL|          DFT-D3 (Version 3.1)
 vdW POTENTIAL|          Potential Form: S. Grimme et al, JCP 132: 154104 (2010)
 vdW POTENTIAL|          Zero Damping
 vdW POTENTIAL|          Cutoff Radius [Bohr]:                             20.00
 vdW POTENTIAL|          s6 Scaling Factor:                               1.0000
 vdW POTENTIAL|          sr6 Scaling Factor:                              1.2170
 vdW POTENTIAL|          s8 Scaling Factor:                               0.7220
 vdW POTENTIAL|          Cutoff for CN calculation:                   0.1000E-05

 QS| Method:                                                                 GPW
 QS| Density plane wave grid type                        NON-SPHERICAL FULLSPACE
 QS| Number of grid levels:                                                    4
 QS| Density cutoff [a.u.]:                                                200.0
 QS| Multi grid cutoff [a.u.]: 1) grid level                               200.0
 QS|                           2) grid level                                66.7
 QS|                           3) grid level                                22.2
 QS|                           4) grid level                                 7.4
 QS| Grid level progression factor:                                          3.0
 QS| Relative density cutoff [a.u.]:                                        20.0
 QS| Interaction thresholds: eps_pgf_orb:                                3.2E-07
 QS|                         eps_filter_matrix:                          0.0E+00
 QS|                         eps_core_charge:                            1.0E-15
 QS|                         eps_rho_gspace:                             1.0E-13
 QS|                         eps_rho_rspace:                             1.0E-13
 QS|                         eps_gvg_rspace:                             3.2E-07
 QS|                         eps_ppl:                                    1.0E-02
 QS|                         eps_ppnl:                                   3.2E-09


 ATOMIC KIND INFORMATION

  1. Atomic kind: O                                     Number of atoms:      97

     Orbital Basis Set                                        DZVP-MOLOPT-SR-GTH

       Number of orbital shell sets:                                           1
       Number of orbital shells:                                               5
       Number of primitive Cartesian functions:                                5
       Number of Cartesian basis functions:                                   14
       Number of spherical basis functions:                                   13
       Norm type:                                                              2

       Normalised Cartesian orbitals:

                        Set   Shell   Orbital            Exponent    Coefficient

                          1       1    2s               10.389228       0.396646
                                                         3.849621       0.208811
                                                         1.388401      -0.301641
                                                         0.496955      -0.274061
                                                         0.162492      -0.033677

                          1       2    3s               10.389228       0.303673
                                                         3.849621       0.240943
                                                         1.388401      -0.313066
                                                         0.496955      -0.043055
                                                         0.162492       0.213991

                          1       3    3px              10.389228      -1.530415
                                                         3.849621      -1.371928
                                                         1.388401      -0.761951
                                                         0.496955      -0.253695
                                                         0.162492      -0.035541
                          1       3    3py              10.389228      -1.530415
                                                         3.849621      -1.371928
                                                         1.388401      -0.761951
                                                         0.496955      -0.253695
                                                         0.162492      -0.035541
                          1       3    3pz              10.389228      -1.530415
                                                         3.849621      -1.371928
                                                         1.388401      -0.761951
                                                         0.496955      -0.253695
                                                         0.162492      -0.035541

                          1       4    4px              10.389228      -0.565392
                                                         3.849621      -0.038231
                                                         1.388401      -0.382373
                                                         0.496955       0.179070
                                                         0.162492       0.122714
                          1       4    4py              10.389228      -0.565392
                                                         3.849621      -0.038231
                                                         1.388401      -0.382373
                                                         0.496955       0.179070
                                                         0.162492       0.122714
                          1       4    4pz              10.389228      -0.565392
                                                         3.849621      -0.038231
                                                         1.388401      -0.382373
                                                         0.496955       0.179070
                                                         0.162492       0.122714

                          1       5    4dx2             10.389228       1.867377
                                                         3.849621       0.670994
                                                         1.388401       1.353441
                                                         0.496955       0.273538
                                                         0.162492       0.006620
                          1       5    4dxy             10.389228       3.234392
                                                         3.849621       1.162195
                                                         1.388401       2.344229
                                                         0.496955       0.473781
                                                         0.162492       0.011466
                          1       5    4dxz             10.389228       3.234392
                                                         3.849621       1.162195
                                                         1.388401       2.344229
                                                         0.496955       0.473781
                                                         0.162492       0.011466
                          1       5    4dy2             10.389228       1.867377
                                                         3.849621       0.670994
                                                         1.388401       1.353441
                                                         0.496955       0.273538
                                                         0.162492       0.006620
                          1       5    4dyz             10.389228       3.234392
                                                         3.849621       1.162195
                                                         1.388401       2.344229
                                                         0.496955       0.473781
                                                         0.162492       0.011466
                          1       5    4dz2             10.389228       1.867377
                                                         3.849621       0.670994
                                                         1.388401       1.353441
                                                         0.496955       0.273538
                                                         0.162492       0.006620

       Atomic covalent radius [Angstrom]:                                  0.730

       Atomic van der Waals radius [Angstrom]:                             1.520

     GTH Potential information for                                    GTH-PBE-q6

       Description:                       Goedecker-Teter-Hutter pseudopotential
                                           Goedecker et al., PRB 54, 1703 (1996)
                                          Hartwigsen et al., PRB 58, 3641 (1998)
                                                      Krack, TCA 114, 145 (2005)

       Gaussian exponent of the core charge distribution:               8.360253
       Electronic configuration (s p d ...):                               2   4

       Parameters of the local part of the GTH pseudopotential:

                          rloc        C1          C2          C3          C4
                        0.244554  -16.667215    2.487311

       Parameters of the non-local part of the GTH pseudopotential:

                   l      r(l)      h(i,j,l)

                   0    0.220956   18.337458
                   1    0.211332

  2. Atomic kind: H                                     Number of atoms:     194

     Orbital Basis Set                                        DZVP-MOLOPT-SR-GTH

       Number of orbital shell sets:                                           1
       Number of orbital shells:                                               3
       Number of primitive Cartesian functions:                                5
       Number of Cartesian basis functions:                                    5
       Number of spherical basis functions:                                    5
       Norm type:                                                              2

       Normalised Cartesian orbitals:

                        Set   Shell   Orbital            Exponent    Coefficient

                          1       1    2s               10.068468      -0.133023
                                                         2.680223      -0.177618
                                                         0.791502      -0.258419
                                                         0.239116      -0.107525
                                                         0.082193      -0.014019

                          1       2    3s               10.068468       0.344673
                                                         2.680223       1.819821
                                                         0.791502      -0.999069
                                                         0.239116       0.017430
                                                         0.082193       0.082660

                          1       3    3px              10.068468       0.155326
                                                         2.680223       0.367157
                                                         0.791502       0.311480
                                                         0.239116       0.080105
                                                         0.082193       0.033440
                          1       3    3py              10.068468       0.155326
                                                         2.680223       0.367157
                                                         0.791502       0.311480
                                                         0.239116       0.080105
                                                         0.082193       0.033440
                          1       3    3pz              10.068468       0.155326
                                                         2.680223       0.367157
                                                         0.791502       0.311480
                                                         0.239116       0.080105
                                                         0.082193       0.033440

       Atomic covalent radius [Angstrom]:                                  0.320

       Atomic van der Waals radius [Angstrom]:                             1.090

     GTH Potential information for                                    GTH-PBE-q1

       Description:                       Goedecker-Teter-Hutter pseudopotential
                                           Goedecker et al., PRB 54, 1703 (1996)
                                          Hartwigsen et al., PRB 58, 3641 (1998)
                                                      Krack, TCA 114, 145 (2005)

       Gaussian exponent of the core charge distribution:              12.500000
       Electronic configuration (s p d ...):                                   1

       Parameters of the local part of the GTH pseudopotential:

                          rloc        C1          C2          C3          C4
                        0.200000   -4.178900    0.724463

  3. Atomic kind: Pt                                    Number of atoms:     216

     Orbital Basis Set                      DZVP-A5-Q10-323-MOL-T1-DERIVED_SET-1

       Number of orbital shell sets:                                           1
       Number of orbital shells:                                               6
       Number of primitive Cartesian functions:                                5
       Number of Cartesian basis functions:                                   23
       Number of spherical basis functions:                                   20
       Norm type:                                                              2

       Normalised Cartesian orbitals:

                        Set   Shell   Orbital            Exponent    Coefficient

                          1       1    2s                2.521825       0.177473
                                                         1.453920      -0.063399
                                                         0.614053      -0.407089
                                                         0.232656       0.262254
                                                         0.074788       0.047371

                          1       2    3s                2.521825      -0.049056
                                                         1.453920       0.044904
                                                         0.614053      -0.009756
                                                         0.232656      -0.144709
                                                         0.074788       0.144085

                          1       3    3px               2.521825      -0.317572
                                                         1.453920       0.534826
                                                         0.614053      -0.489458
                                                         0.232656       0.245631
                                                         0.074788       0.018221
                          1       3    3py               2.521825      -0.317572
                                                         1.453920       0.534826
                                                         0.614053      -0.489458
                                                         0.232656       0.245631
                                                         0.074788       0.018221
                          1       3    3pz               2.521825      -0.317572
                                                         1.453920       0.534826
                                                         0.614053      -0.489458
                                                         0.232656       0.245631
                                                         0.074788       0.018221

                          1       4    4dx2              2.521825       3.008522
                                                         1.453920      -1.224251
                                                         0.614053       0.225691
                                                         0.232656       0.125144
                                                         0.074788      -0.015348
                          1       4    4dxy              2.521825       5.210912
                                                         1.453920      -2.120465
                                                         0.614053       0.390909
                                                         0.232656       0.216756
                                                         0.074788      -0.026584
                          1       4    4dxz              2.521825       5.210912
                                                         1.453920      -2.120465
                                                         0.614053       0.390909
                                                         0.232656       0.216756
                                                         0.074788      -0.026584
                          1       4    4dy2              2.521825       3.008522
                                                         1.453920      -1.224251
                                                         0.614053       0.225691
                                                         0.232656       0.125144
                                                         0.074788      -0.015348
                          1       4    4dyz              2.521825       5.210912
                                                         1.453920      -2.120465
                                                         0.614053       0.390909
                                                         0.232656       0.216756
                                                         0.074788      -0.026584
                          1       4    4dz2              2.521825       3.008522
                                                         1.453920      -1.224251
                                                         0.614053       0.225691
                                                         0.232656       0.125144
                                                         0.074788      -0.015348

                          1       5    5dx2              2.521825       0.698026
                                                         1.453920      -1.511486
                                                         0.614053      -0.335394
                                                         0.232656      -0.025564
                                                         0.074788      -0.002699
                          1       5    5dxy              2.521825       1.209017
                                                         1.453920      -2.617970
                                                         0.614053      -0.580920
                                                         0.232656      -0.044277
                                                         0.074788      -0.004674
                          1       5    5dxz              2.521825       1.209017
                                                         1.453920      -2.617970
                                                         0.614053      -0.580920
                                                         0.232656      -0.044277
                                                         0.074788      -0.004674
                          1       5    5dy2              2.521825       0.698026
                                                         1.453920      -1.511486
                                                         0.614053      -0.335394
                                                         0.232656      -0.025564
                                                         0.074788      -0.002699
                          1       5    5dyz              2.521825       1.209017
                                                         1.453920      -2.617970
                                                         0.614053      -0.580920
                                                         0.232656      -0.044277
                                                         0.074788      -0.004674
                          1       5    5dz2              2.521825       0.698026
                                                         1.453920      -1.511486
                                                         0.614053      -0.335394
                                                         0.232656      -0.025564
                                                         0.074788      -0.002699

                          1       6    6dx2              2.521825       0.831079
                                                         1.453920      -0.709226
                                                         0.614053      -0.137351
                                                         0.232656       0.068642
                                                         0.074788       0.011745
                          1       6    6dxy              2.521825       1.439472
                                                         1.453920      -1.228415
                                                         0.614053      -0.237899
                                                         0.232656       0.118891
                                                         0.074788       0.020343
                          1       6    6dxz              2.521825       1.439472
                                                         1.453920      -1.228415
                                                         0.614053      -0.237899
                                                         0.232656       0.118891
                                                         0.074788       0.020343
                          1       6    6dy2              2.521825       0.831079
                                                         1.453920      -0.709226
                                                         0.614053      -0.137351
                                                         0.232656       0.068642
                                                         0.074788       0.011745
                          1       6    6dyz              2.521825       1.439472
                                                         1.453920      -1.228415
                                                         0.614053      -0.237899
                                                         0.232656       0.118891
                                                         0.074788       0.020343
                          1       6    6dz2              2.521825       0.831079
                                                         1.453920      -0.709226
                                                         0.614053      -0.137351
                                                         0.232656       0.068642
                                                         0.074788       0.011745

       Atomic covalent radius [Angstrom]:                                  1.300

       Atomic van der Waals radius [Angstrom]:                             1.750

     GTH Potential information for                                   GTH-PBE-q10

       Description:                       Goedecker-Teter-Hutter pseudopotential
                                           Goedecker et al., PRB 54, 1703 (1996)
                                          Hartwigsen et al., PRB 58, 3641 (1998)
                                                      Krack, TCA 114, 145 (2005)

       Gaussian exponent of the core charge distribution:               1.317676
       Electronic configuration (s p d ...):                           1   0   9

       Parameters of the local part of the GTH pseudopotential:

                          rloc        C1          C2          C3          C4
                        0.616000   11.313635

       Parameters of the non-local part of the GTH pseudopotential:

                   l      r(l)      h(i,j,l)

                   0    0.550904    4.733491   -1.784594
                                   -1.784594    2.303901
                   1    0.674138    2.534798   -1.778066
                                   -1.778066    2.103836
                   2    0.457392   -7.264011    2.558665
                                    2.558665   -2.901253


 MOLECULE KIND INFORMATION


 All atoms are their own molecule, skipping detailed information


 TOTAL NUMBERS AND MAXIMUM NUMBERS

  Total number of            - Atomic kinds:                                   3
                             - Atoms:                                        507
                             - Shell sets:                                   507
                             - Shells:                                      2363
                             - Primitive Cartesian functions:               2535
                             - Cartesian basis functions:                   7296
                             - Spherical basis functions:                   6551

  Maximum angular momentum of- Orbital basis functions:                        2
                             - Local part of the GTH pseudopotential:          2
                             - Non-local part of the GTH pseudopotential:      4


 MODULE QUICKSTEP:  ATOMIC COORDINATES IN angstrom

 Atom  Kind  Element       X           Y           Z          Z(eff)       Mass
    1   1 O    8       6.870000   -4.610000   29.958000       6.0000     15.9994
    2   2 H    1       7.120000   -4.580000   28.977999       1.0000      1.0079
    3   2 H    1       6.510000   -5.560000   30.137999       1.0000      1.0079
    4   1 O    8       9.100000    1.660000   36.197999       6.0000     15.9994
    5   2 H    1       8.610001    1.020000   35.568000       1.0000      1.0079
    6   2 H    1       8.650001    2.530000   36.087999       1.0000      1.0079
    7   1 O    8     -13.260001  -30.110001   32.717999       6.0000     15.9994
    8   2 H    1     -13.210001  -29.130001   32.918000       1.0000      1.0079
    9   2 H    1     -12.270001  -30.340002   32.818000       1.0000      1.0079
   10   1 O    8      21.550003    2.810000   30.487999       6.0000     15.9994
   11   2 H    1      21.840000    3.590000   30.117999       1.0000      1.0079
   12   2 H    1      20.620001    2.890000   30.708000       1.0000      1.0079
   13   1 O    8      11.270000   29.430000   29.237999       6.0000     15.9994
   14   2 H    1      12.270001   29.370001   29.447999       1.0000      1.0079
   15   2 H    1      19.260002   15.520000   29.798000       1.0000      1.0079
   16   1 O    8     -11.200000  -43.410000   30.017999       6.0000     15.9994
   17   2 H    1     -10.800000  -44.310001   30.027999       1.0000      1.0079
   18   2 H    1     -11.390000  -43.070000   31.017999       1.0000      1.0079
   19   1 O    8      34.740002   21.880001   33.527999       6.0000     15.9994
   20   2 H    1      34.170002   22.720001   33.577999       1.0000      1.0079
   21   2 H    1      34.770004   21.790001   34.537999       1.0000      1.0079
   22   1 O    8     -15.020000    9.510000   36.317999       6.0000     15.9994
   23   2 H    1     -14.990001    9.180000   35.347999       1.0000      1.0079
   24   2 H    1     -14.130001    9.170000   36.568000       1.0000      1.0079
   25   1 O    8      22.210003    0.130000   29.407999       6.0000     15.9994
   26   2 H    1      21.310001   -0.310000   29.628000       1.0000      1.0079
   27   2 H    1      22.050001    1.090000   29.587999       1.0000      1.0079
   28   1 O    8       3.300000  -42.070004   35.898000       6.0000     15.9994
   29   2 H    1       3.610000  -41.660004   35.058000       1.0000      1.0079
   30   2 H    1       2.330000  -41.900002   35.787999       1.0000      1.0079
   31   1 O    8      24.440001  -19.580000   33.378000       6.0000     15.9994
   32   2 H    1      24.640003  -18.750002   32.787999       1.0000      1.0079
   33   2 H    1      23.750000  -20.090000   32.808000       1.0000      1.0079
   34   1 O    8      -0.770000   11.380000   33.068000       6.0000     15.9994
   35   2 H    1       0.020000   11.730001   33.407998       1.0000      1.0079
   36   2 H    1      -0.830000   10.470000   32.867999       1.0000      1.0079
   37   1 O    8      10.070001   -2.670000   33.777999       6.0000     15.9994
   38   2 H    1      -6.380000   -2.050000   34.447999       1.0000      1.0079
   39   2 H    1      10.650001   -2.600000   32.977999       1.0000      1.0079
   40   1 O    8       0.560000   -5.060000   37.998000       6.0000     15.9994
   41   2 H    1       1.060000   -4.980001   38.867999       1.0000      1.0079
   42   2 H    1       0.890000   -4.340000   37.398000       1.0000      1.0079
   43   1 O    8      15.320001   59.080006   36.968000       6.0000     15.9994
   44   2 H    1      15.120001   60.010002   37.078000       1.0000      1.0079
   45   2 H    1      14.720001   58.540001   37.537999       1.0000      1.0079
   46   1 O    8     -24.940002  -15.530001   29.437999       6.0000     15.9994
   47   2 H    1     -24.810001  -14.530001   29.437999       1.0000      1.0079
   48   2 H    1     -24.030001  -15.810001   29.677999       1.0000      1.0079
   49   1 O    8       1.230000    9.680000   30.747999       6.0000     15.9994
   50   2 H    1       0.210000    9.730001   30.597999       1.0000      1.0079
   51   2 H    1       1.560000   10.420000   30.267999       1.0000      1.0079
   52   1 O    8      29.430000    3.880000   29.947999       6.0000     15.9994
   53   2 H    1      30.150002    3.370000   30.327999       1.0000      1.0079
   54   2 H    1      12.690001    3.880000   28.987999       1.0000      1.0079
   55   1 O    8      -0.670000   17.250000   30.207999       6.0000     15.9994
   56   2 H    1       0.270000   16.880001   30.287999       1.0000      1.0079
   57   2 H    1      -1.170000   16.970001   29.397999       1.0000      1.0079
   58   1 O    8      32.790001    5.540000   34.988000       6.0000     15.9994
   59   2 H    1      31.910002    5.860000   34.668000       1.0000      1.0079
   60   2 H    1      33.130001    6.160001   35.638000       1.0000      1.0079
   61   1 O    8     -41.020004    6.090000   39.407998       6.0000     15.9994
   62   2 H    1     -41.119999    6.450000   38.548000       1.0000      1.0079
   63   2 H    1     -40.080002    5.700001   39.447999       1.0000      1.0079
   64   1 O    8      10.130000   18.740002   32.717999       6.0000     15.9994
   65   2 H    1       9.150001   18.490002   32.577999       1.0000      1.0079
   66   2 H    1      10.330000   19.110001   31.848000       1.0000      1.0079
   67   1 O    8       4.030000   -6.730001   36.158000       6.0000     15.9994
   68   2 H    1       4.580000   -6.480000   36.907999       1.0000      1.0079
   69   2 H    1       3.970000   -5.840001   35.687999       1.0000      1.0079
   70   1 O    8     -11.410000  -13.020000   32.387999       6.0000     15.9994
   71   2 H    1     -10.830001  -12.370001   32.067999       1.0000      1.0079
   72   2 H    1     -19.300001    1.120000   33.098000       1.0000      1.0079
   73   1 O    8     -10.760001    9.070001   38.838001       6.0000     15.9994
   74   2 H    1      -9.840000    9.130000   38.578000       1.0000      1.0079
   75   2 H    1     -10.690001    8.290001   39.508001       1.0000      1.0079
   76   1 O    8       1.650000   25.160000   30.107999       6.0000     15.9994
   77   2 H    1       1.220000   25.320000   29.248000       1.0000      1.0079
   78   2 H    1       1.250000   24.200001   30.107999       1.0000      1.0079
   79   1 O    8       5.870000   10.260000   35.468000       6.0000     15.9994
   80   2 H    1       6.520000   10.160000   34.728000       1.0000      1.0079
   81   2 H    1       6.340000   10.780001   36.158000       1.0000      1.0079
   82   1 O    8     -12.430000   37.700001   36.668000       6.0000     15.9994
   83   2 H    1       4.890000   38.390003   36.058000       1.0000      1.0079
   84   2 H    1     -11.900001   37.700001   37.437999       1.0000      1.0079
   85   1 O    8     -29.000000  -15.520000   38.388000       6.0000     15.9994
   86   2 H    1     -28.850002  -16.330002   38.937999       1.0000      1.0079
   87   2 H    1     -29.680002  -15.090000   38.918001       1.0000      1.0079
   88   1 O    8      23.380001  -16.870001   30.067999       6.0000     15.9994
   89   2 H    1      22.720001  -17.580002   29.888000       1.0000      1.0079
   90   2 H    1      23.800001  -16.660002   29.197999       1.0000      1.0079
   91   1 O    8      -4.360000   -3.670000   30.048000       6.0000     15.9994
   92   2 H    1      -3.860000   -4.380000   30.387999       1.0000      1.0079
   93   2 H    1      -4.620000   -3.870000   29.128000       1.0000      1.0079
   94   1 O    8      12.070000  -13.640001   35.918000       6.0000     15.9994
   95   2 H    1      12.540001  -14.520000   35.857999       1.0000      1.0079
   96   2 H    1      11.290001  -13.730000   36.508000       1.0000      1.0079
   97   1 O    8       8.830000  -27.840002   38.908000       6.0000     15.9994
   98   2 H    1       8.810000  -27.800003   37.867999       1.0000      1.0079
   99   2 H    1       8.660001  -26.950001   39.357999       1.0000      1.0079
  100   1 O    8      18.690001   16.920000   30.517999       6.0000     15.9994
  101   2 H    1      18.820002   16.900002   31.558000       1.0000      1.0079
  102   2 H    1      19.480001   17.490002   30.197999       1.0000      1.0079
  103   1 O    8     -21.740000   45.709999   33.237999       6.0000     15.9994
  104   2 H    1     -21.790001   45.680004   34.187999       1.0000      1.0079
  105   2 H    1     -22.510002   46.350002   33.107999       1.0000      1.0079
  106   1 O    8      16.070002   18.930000   33.567999       6.0000     15.9994
  107   2 H    1      15.430001   18.230001   33.337999       1.0000      1.0079
  108   2 H    1      15.600000   19.800001   33.378000       1.0000      1.0079
  109   1 O    8     -30.740002  -15.660001   36.158000       6.0000     15.9994
  110   2 H    1     -30.120001  -15.590000   36.958000       1.0000      1.0079
  111   2 H    1     -30.850000  -14.650001   36.048000       1.0000      1.0079
  112   1 O    8      16.040001   13.370000   30.397999       6.0000     15.9994
  113   2 H    1      15.810001   12.510000   30.638000       1.0000      1.0079
  114   2 H    1      15.190001   13.750001   30.027999       1.0000      1.0079
  115   1 O    8      19.340002    6.090000   33.967999       6.0000     15.9994
  116   2 H    1      11.300000   20.530003   34.908000       1.0000      1.0079
  117   2 H    1      18.820002    5.370000   33.457999       1.0000      1.0079
  118   1 O    8     -29.090002   -4.280000   34.908000       6.0000     15.9994
  119   2 H    1     -28.080002   -4.290000   34.787999       1.0000      1.0079
  120   2 H    1     -29.420002   -4.160000   33.958000       1.0000      1.0079
  121   1 O    8     -43.660004   14.520000   34.298000       6.0000     15.9994
  122   2 H    1     -44.400002   13.900002   34.107999       1.0000      1.0079
  123   2 H    1     -43.660004   14.760000   35.268000       1.0000      1.0079
  124   1 O    8       6.370000    0.200000   39.777999       6.0000     15.9994
  125   2 H    1      24.070000    0.680000   39.667999       1.0000      1.0079
  126   2 H    1       6.470000   -0.670000   39.208000       1.0000      1.0079
  127   1 O    8      28.500002  -19.570002   32.818000       6.0000     15.9994
  128   2 H    1      27.980001  -19.030001   33.507999       1.0000      1.0079
  129   2 H    1      28.810001  -18.970001   32.057999       1.0000      1.0079
  130   1 O    8       8.280001  -24.930000   36.067999       6.0000     15.9994
  131   2 H    1       8.620001  -24.050003   36.367999       1.0000      1.0079
  132   2 H    1       7.800000  -24.799999   35.157999       1.0000      1.0079
  133   1 O    8     -23.240002   25.950001   39.648000       6.0000     15.9994
  134   2 H    1     -23.620003   26.170002   38.818000       1.0000      1.0079
  135   2 H    1     -22.320002   25.900002   39.527999       1.0000      1.0079
  136   1 O    8      30.750000   -8.170000   33.037999       6.0000     15.9994
  137   2 H    1      29.810001   -8.340000   33.387999       1.0000      1.0079
  138   2 H    1      39.200001    7.390000   32.818000       1.0000      1.0079
  139   1 O    8      -3.600000   -1.500000   34.218000       6.0000     15.9994
  140   2 H    1      -4.180000   -1.160000   34.958000       1.0000      1.0079
  141   2 H    1      -3.390000   -2.430000   34.557999       1.0000      1.0079
  142   1 O    8       9.570000   12.560000   36.228000       6.0000     15.9994
  143   2 H    1      -7.260000   13.530001   36.668000       1.0000      1.0079
  144   2 H    1       9.930000   12.520000   35.308000       1.0000      1.0079
  145   1 O    8      11.670000  -17.510000   37.658000       6.0000     15.9994
  146   2 H    1       2.440000   -2.550000   37.267999       1.0000      1.0079
  147   2 H    1      11.850000  -18.320002   37.158000       1.0000      1.0079
  148   1 O    8      -4.590000    7.240000   31.818000       6.0000     15.9994
  149   2 H    1      -5.010000    7.990000   32.287999       1.0000      1.0079
  150   2 H    1      -4.180000    6.700000   32.567999       1.0000      1.0079
  151   1 O    8     -15.340000    7.160000   29.597999       6.0000     15.9994
  152   2 H    1     -15.470000    8.030001   30.057999       1.0000      1.0079
  153   2 H    1     -16.080000    6.600000   29.747999       1.0000      1.0079
  154   1 O    8     -28.850002   20.490000   33.967999       6.0000     15.9994
  155   2 H    1     -29.100000   19.490002   34.177999       1.0000      1.0079
  156   2 H    1     -29.450001   20.960003   34.648000       1.0000      1.0079
  157   1 O    8     -15.640001   12.290001   29.117999       6.0000     15.9994
  158   2 H    1     -16.540001   12.610001   29.317999       1.0000      1.0079
  159   2 H    1     -15.180001   13.180000   29.087999       1.0000      1.0079
  160   1 O    8      -5.220000  -15.940001   30.128000       6.0000     15.9994
  161   2 H    1      -4.840000  -16.850000   30.287999       1.0000      1.0079
  162   2 H    1      -5.320000  -15.560001   31.077999       1.0000      1.0079
  163   1 O    8      24.130001   19.920002   29.977999       6.0000     15.9994
  164   2 H    1      23.610001   20.760002   29.927999       1.0000      1.0079
  165   2 H    1      23.940001   19.620001   29.037999       1.0000      1.0079
  166   1 O    8      -2.240000    7.900000   38.237998       6.0000     15.9994
  167   2 H    1      -1.350000    7.820001   37.838001       1.0000      1.0079
  168   2 H    1      -2.110000    8.650001   38.847999       1.0000      1.0079
  169   1 O    8       1.620000    5.750000   38.298000       6.0000     15.9994
  170   2 H    1       2.340000    5.820000   37.588001       1.0000      1.0079
  171   2 H    1       1.400000    4.790000   38.398000       1.0000      1.0079
  172   1 O    8       8.520000   21.900002   36.867999       6.0000     15.9994
  173   2 H    1       8.970000   22.720001   36.787999       1.0000      1.0079
  174   2 H    1       9.040001   21.260002   37.478000       1.0000      1.0079
  175   1 O    8      -2.770000   48.549999   37.287999       6.0000     15.9994
  176   2 H    1      -2.950000   47.650002   37.668001       1.0000      1.0079
  177   2 H    1      -1.940000   48.410000   36.737999       1.0000      1.0079
  178   1 O    8      12.460001   21.990002   29.157999       6.0000     15.9994
  179   2 H    1      13.170000   21.340000   29.507999       1.0000      1.0079
  180   2 H    1      11.490001   21.830002   29.407999       1.0000      1.0079
  181   1 O    8      -9.810000   16.850000   29.248000       6.0000     15.9994
  182   2 H    1      -9.090000   17.100000   29.777999       1.0000      1.0079
  183   2 H    1     -10.110001   16.040001   29.607999       1.0000      1.0079
  184   1 O    8      -6.510000   33.380001   32.878000       6.0000     15.9994
  185   2 H    1      -7.420001   33.510002   33.407998       1.0000      1.0079
  186   2 H    1      -6.490001   34.160000   32.287999       1.0000      1.0079
  187   1 O    8      -7.390000    7.490000   36.628000       6.0000     15.9994
  188   2 H    1      -7.600000    8.260000   37.197999       1.0000      1.0079
  189   2 H    1      -6.460000    7.620000   36.488000       1.0000      1.0079
  190   1 O    8       5.130000   31.230001   38.037999       6.0000     15.9994
  191   2 H    1      14.190001   15.930000   38.358001       1.0000      1.0079
  192   2 H    1       4.650001   30.820004   37.267999       1.0000      1.0079
  193   1 O    8      19.200001    4.260000   29.917999       6.0000     15.9994
  194   2 H    1      18.590000    3.850000   29.257999       1.0000      1.0079
  195   2 H    1      19.790001    4.790000   29.417999       1.0000      1.0079
  196   1 O    8      17.520000    0.560000   32.857999       6.0000     15.9994
  197   2 H    1      18.240002   -0.070000   33.148000       1.0000      1.0079
  198   2 H    1      16.680000    0.380000   33.337999       1.0000      1.0079
  199   1 O    8      20.280001   12.980001   31.937999       6.0000     15.9994
  200   2 H    1      20.570002   12.520000   31.067999       1.0000      1.0079
  201   2 H    1      21.110001   13.000001   32.508000       1.0000      1.0079
  202   1 O    8      23.059999    2.430000   32.697999       6.0000     15.9994
  203   2 H    1      22.100000    2.290000   32.727999       1.0000      1.0079
  204   2 H    1      23.350000    2.420000   31.747999       1.0000      1.0079
  205   1 O    8     -14.900002    8.190001   39.687999       6.0000     15.9994
  206   2 H    1     -15.700001    8.670000   39.927999       1.0000      1.0079
  207   2 H    1      -6.770000   -7.260000   39.267999       1.0000      1.0079
  208   1 O    8       4.840000   11.330000   39.787999       6.0000     15.9994
  209   2 H    1       5.570001   10.690001   39.487998       1.0000      1.0079
  210   2 H    1       4.840000   11.280001   40.818000       1.0000      1.0079
  211   1 O    8       9.190001  -13.010001   30.617999       6.0000     15.9994
  212   2 H    1       9.250001  -13.510000   31.477999       1.0000      1.0079
  213   2 H    1      26.870001  -12.520000   30.567999       1.0000      1.0079
  214   1 O    8      15.130001    5.410000   39.638000       6.0000     15.9994
  215   2 H    1      15.130001    4.690000   38.867999       1.0000      1.0079
  216   2 H    1      -2.070000    6.250000   39.158000       1.0000      1.0079
  217   1 O    8     -11.230000  -23.390003   30.337999       6.0000     15.9994
  218   2 H    1     -10.270000  -23.480000   29.987999       1.0000      1.0079
  219   2 H    1     -11.180000  -23.180000   31.337999       1.0000      1.0079
  220   1 O    8      20.290001    6.070001   36.488000       6.0000     15.9994
  221   2 H    1      20.570002    7.030000   36.477999       1.0000      1.0079
  222   2 H    1      21.160002    5.570001   36.787999       1.0000      1.0079
  223   1 O    8       9.660000   44.070000   37.527999       6.0000     15.9994
  224   2 H    1       8.680000   44.260002   37.318000       1.0000      1.0079
  225   2 H    1       9.690001   43.820004   38.498000       1.0000      1.0079
  226   1 O    8      16.780001   26.230001   31.877999       6.0000     15.9994
  227   2 H    1      17.480000   25.900002   31.258000       1.0000      1.0079
  228   2 H    1      16.100002   26.540001   31.167999       1.0000      1.0079
  229   1 O    8      12.730000   31.880001   38.138000       6.0000     15.9994
  230   2 H    1      12.270001   31.650002   37.228000       1.0000      1.0079
  231   2 H    1      12.160001   32.570004   38.548000       1.0000      1.0079
  232   1 O    8      15.060000  -16.620001   38.398000       6.0000     15.9994
  233   2 H    1      15.910001  -16.850000   38.007999       1.0000      1.0079
  234   2 H    1      14.400001  -16.430000   37.647998       1.0000      1.0079
  235   1 O    8       4.530000   -3.740000   30.128000       6.0000     15.9994
  236   2 H    1       3.990000   -4.190001   29.437999       1.0000      1.0079
  237   2 H    1       5.430000   -4.040000   29.967999       1.0000      1.0079
  238   1 O    8      -1.010000    3.960000   32.257999       6.0000     15.9994
  239   2 H    1      -1.280000    4.420000   33.077998       1.0000      1.0079
  240   2 H    1      -1.190000    4.550000   31.467999       1.0000      1.0079
  241   1 O    8     -26.600000   23.350000   32.927999       6.0000     15.9994
  242   2 H    1     -27.180002   22.640001   33.237999       1.0000      1.0079
  243   2 H    1     -25.650002   23.160002   33.117999       1.0000      1.0079
  244   1 O    8       1.210000    3.200000   38.718000       6.0000     15.9994
  245   2 H    1       1.840000    2.720000   39.357999       1.0000      1.0079
  246   2 H    1       1.330000    2.640000   37.978000       1.0000      1.0079
  247   1 O    8      31.280003   13.260001   33.628000       6.0000     15.9994
  248   2 H    1      31.770000   12.350000   33.428000       1.0000      1.0079
  249   2 H    1      32.060001   13.930000   33.838000       1.0000      1.0079
  250   1 O    8     -17.700001   15.260000   34.298000       6.0000     15.9994
  251   2 H    1     -17.050001   15.130001   33.567999       1.0000      1.0079
  252   2 H    1     -18.370001   16.010000   34.097999       1.0000      1.0079
  253   1 O    8     -10.250001   18.210001   37.638000       6.0000     15.9994
  254   2 H    1     -11.240001   17.970001   37.848001       1.0000      1.0079
  255   2 H    1     -10.350000   18.740002   36.787999       1.0000      1.0079
  256   1 O    8     -15.530001    8.450001   33.587999       6.0000     15.9994
  257   2 H    1     -15.130001    8.870000   32.827999       1.0000      1.0079
  258   2 H    1     -15.210000    7.450001   33.687999       1.0000      1.0079
  259   1 O    8     -23.070002    6.010000   30.017999       6.0000     15.9994
  260   2 H    1     -22.630001    5.860000   29.197999       1.0000      1.0079
  261   2 H    1     -22.470001    6.400001   30.638000       1.0000      1.0079
  262   1 O    8       0.060000   -6.340000   30.007999       6.0000     15.9994
  263   2 H    1       0.480000   -7.240000   30.258000       1.0000      1.0079
  264   2 H    1      -0.020000   -6.350000   29.007999       1.0000      1.0079
  265   1 O    8      17.830002   14.740001   32.128000       6.0000     15.9994
  266   2 H    1      18.650002   14.280001   32.098000       1.0000      1.0079
  267   2 H    1      17.200001   14.260001   31.497999       1.0000      1.0079
  268   1 O    8      17.410000   11.820001   37.237998       6.0000     15.9994
  269   2 H    1      26.190002   -2.070000   36.698000       1.0000      1.0079
  270   2 H    1      17.660000   10.940001   36.848000       1.0000      1.0079
  271   1 O    8      -3.460000   13.250000   36.238000       6.0000     15.9994
  272   2 H    1      -3.830000   12.340001   36.357999       1.0000      1.0079
  273   2 H    1      -3.030000   13.230000   35.318000       1.0000      1.0079
  274   1 O    8      15.610001   -2.630000   37.128000       6.0000     15.9994
  275   2 H    1      15.750000   -2.610000   38.068000       1.0000      1.0079
  276   2 H    1      16.410000   -2.210000   36.757999       1.0000      1.0079
  277   1 O    8     -14.970001   26.470001   33.817999       6.0000     15.9994
  278   2 H    1       1.090000   26.530001   33.237999       1.0000      1.0079
  279   2 H    1       2.590000   27.140003   33.527999       1.0000      1.0079
  280   1 O    8      20.980000   18.010002   33.938000       6.0000     15.9994
  281   2 H    1      21.510000   17.450001   33.287999       1.0000      1.0079
  282   2 H    1      20.180000   18.290001   33.428000       1.0000      1.0079
  283   1 O    8     -19.740002  -35.140003   31.107999       6.0000     15.9994
  284   2 H    1     -18.940001  -35.140003   30.497999       1.0000      1.0079
  285   2 H    1     -20.360001  -35.480000   30.427999       1.0000      1.0079
  286   1 O    8      -8.620001   34.389999   29.237999       6.0000     15.9994
  287   2 H    1      -8.790001   33.430000   29.628000       1.0000      1.0079
  288   2 H    1      -7.650001   34.710003   29.628000       1.0000      1.0079
  289   1 O    8     -28.050001   -7.100000   29.987999       6.0000     15.9994
  290   2 H    1     -28.710001   -7.140000   30.697999       1.0000      1.0079
  291   2 H    1     -11.620001   -7.050000   29.128000       1.0000      1.0079
  292   3 Pt  78       1.670000    1.010000   15.110001      10.0000    195.0840
  293   3 Pt  78       4.530000    1.090000   15.120003      10.0000    195.0840
  294   3 Pt  78       7.260000    0.960000   15.340000      10.0000    195.0840
  295   3 Pt  78      10.130000    0.900000   15.190002      10.0000    195.0840
  296   3 Pt  78      12.960000    0.880000   15.050003      10.0000    195.0840
  297   3 Pt  78      15.740002    0.910000   15.270000      10.0000    195.0840
  298   3 Pt  78       2.950000    3.320000   15.050003      10.0000    195.0840
  299   3 Pt  78       6.090000    3.310000   15.099998      10.0000    195.0840
  300   3 Pt  78       8.800000    3.330000   15.270000      10.0000    195.0840
  301   3 Pt  78      11.590000    3.260000   15.060001      10.0000    195.0840
  302   3 Pt  78      14.320001    3.420000   15.220001      10.0000    195.0840
  303   3 Pt  78       0.180000    3.370000   15.190002      10.0000    195.0840
  304   3 Pt  78       4.560000    5.660000   15.190002      10.0000    195.0840
  305   3 Pt  78       7.400000    5.770000   15.330002      10.0000    195.0840
  306   3 Pt  78      10.190001    5.800000   15.029999      10.0000    195.0840
  307   3 Pt  78      13.000001    5.770000   15.180000      10.0000    195.0840
  308   3 Pt  78      -1.140000    5.730000   15.260002      10.0000    195.0840
  309   3 Pt  78       1.650000    5.690000   15.190002      10.0000    195.0840
  310   3 Pt  78       5.860000    8.260000   15.079998      10.0000    195.0840
  311   3 Pt  78       8.640000    8.250000   15.169998      10.0000    195.0840
  312   3 Pt  78      11.460000    8.170000   15.260002      10.0000    195.0840
  313   3 Pt  78      -2.660000    8.280001   15.200001      10.0000    195.0840
  314   3 Pt  78       0.240000    8.300000   15.280003      10.0000    195.0840
  315   3 Pt  78       3.030000    8.090000   15.110001      10.0000    195.0840
  316   3 Pt  78       7.220001   10.630001   15.110001      10.0000    195.0840
  317   3 Pt  78       9.930000   10.660001   15.060001      10.0000    195.0840
  318   3 Pt  78      -3.970000   10.800000   15.090000      10.0000    195.0840
  319   3 Pt  78      -1.180000   10.610001   15.079998      10.0000    195.0840
  320   3 Pt  78       1.700000   10.630001   15.400002      10.0000    195.0840
  321   3 Pt  78       4.440001   10.710001   15.150002      10.0000    195.0840
  322   3 Pt  78       8.640000   13.110001   15.000000      10.0000    195.0840
  323   3 Pt  78      -5.350000   13.230000   15.079998      10.0000    195.0840
  324   3 Pt  78      -2.590000   13.110001   15.139999      10.0000    195.0840
  325   3 Pt  78       0.190000   13.110001   15.239998      10.0000    195.0840
  326   3 Pt  78       3.180000   13.150001   15.280003      10.0000    195.0840
  327   3 Pt  78       5.880000   13.050001   15.250000      10.0000    195.0840
  328   3 Pt  78       0.200000    1.630000   17.520000      10.0000    195.0840
  329   3 Pt  78       2.970000    1.630000   17.420002      10.0000    195.0840
  330   3 Pt  78       5.840001    1.590000   17.610001      10.0000    195.0840
  331   3 Pt  78       8.640000    1.500000   17.579998      10.0000    195.0840
  332   3 Pt  78      11.450001    1.580000   17.480000      10.0000    195.0840
  333   3 Pt  78      14.200001    1.620000   17.599998      10.0000    195.0840
  334   3 Pt  78       1.580000    3.980000   17.570000      10.0000    195.0840
  335   3 Pt  78       4.410000    4.070000   17.490002      10.0000    195.0840
  336   3 Pt  78       7.150001    3.970000   17.500000      10.0000    195.0840
  337   3 Pt  78      10.060000    3.960000   17.650002      10.0000    195.0840
  338   3 Pt  78      12.850000    4.100000   17.599998      10.0000    195.0840
  339   3 Pt  78      -1.180000    4.060000   17.620003      10.0000    195.0840
  340   3 Pt  78       3.040000    6.440001   17.630001      10.0000    195.0840
  341   3 Pt  78       5.810000    6.490001   17.540001      10.0000    195.0840
  342   3 Pt  78       8.620001    6.350000   17.579998      10.0000    195.0840
  343   3 Pt  78      11.620001    6.450000   17.570000      10.0000    195.0840
  344   3 Pt  78      -2.420000    6.590000   17.620003      10.0000    195.0840
  345   3 Pt  78       0.340000    6.440001   17.590000      10.0000    195.0840
  346   3 Pt  78       4.480000    8.900001   17.490002      10.0000    195.0840
  347   3 Pt  78       7.210000    8.870000   17.520000      10.0000    195.0840
  348   3 Pt  78      10.080000    8.940001   17.490002      10.0000    195.0840
  349   3 Pt  78      -3.960000    8.930000   17.509998      10.0000    195.0840
  350   3 Pt  78      -1.130000    8.920000   17.599998      10.0000    195.0840
  351   3 Pt  78       1.660000    8.820001   17.560001      10.0000    195.0840
  352   3 Pt  78       5.760000   11.300000   17.599998      10.0000    195.0840
  353   3 Pt  78       8.600000   11.320001   17.380001      10.0000    195.0840
  354   3 Pt  78      -5.480001   11.400002   17.310001      10.0000    195.0840
  355   3 Pt  78      -2.640000   11.260000   17.450001      10.0000    195.0840
  356   3 Pt  78       0.140000   11.340000   17.610001      10.0000    195.0840
  357   3 Pt  78       3.010000   11.360001   17.680000      10.0000    195.0840
  358   3 Pt  78       7.180000   13.740001   17.590000      10.0000    195.0840
  359   3 Pt  78      -6.830000   13.850001   17.369999      10.0000    195.0840
  360   3 Pt  78      -3.960000   13.830000   17.420002      10.0000    195.0840
  361   3 Pt  78      -1.260000   13.680000   17.570000      10.0000    195.0840
  362   3 Pt  78       1.610000   13.770000   17.570000      10.0000    195.0840
  363   3 Pt  78       4.330000   13.860001   17.650002      10.0000    195.0840
  364   3 Pt  78      -8.270000   14.560001   19.820000      10.0000    195.0840
  365   3 Pt  78      -5.460000   14.480001   19.680000      10.0000    195.0840
  366   3 Pt  78      -2.580000   14.430000   19.810001      10.0000    195.0840
  367   3 Pt  78       0.170000   14.370001   19.919998      10.0000    195.0840
  368   3 Pt  78       2.970000   14.490002   19.930000      10.0000    195.0840
  369   3 Pt  78       5.830000   14.500000   19.950001      10.0000    195.0840
  370   3 Pt  78       1.600000    2.460000   19.849998      10.0000    195.0840
  371   3 Pt  78       4.370000    2.380000   19.849998      10.0000    195.0840
  372   3 Pt  78       7.240000    2.360000   20.029999      10.0000    195.0840
  373   3 Pt  78      10.010000    2.170000   19.889999      10.0000    195.0840
  374   3 Pt  78      12.900001    2.330000   20.000004      10.0000    195.0840
  375   3 Pt  78      -1.180000    2.370000   19.860001      10.0000    195.0840
  376   3 Pt  78       3.080000    4.770000   19.820000      10.0000    195.0840
  377   3 Pt  78       5.800000    4.790000   19.880001      10.0000    195.0840
  378   3 Pt  78       8.670000    4.790000   19.919998      10.0000    195.0840
  379   3 Pt  78      11.390000    4.800000   19.919998      10.0000    195.0840
  380   3 Pt  78      -2.630000    4.770000   19.880001      10.0000    195.0840
  381   3 Pt  78       0.230000    4.780000   19.880001      10.0000    195.0840
  382   3 Pt  78       4.470000    7.270000   19.900002      10.0000    195.0840
  383   3 Pt  78       7.220001    7.160000   19.870003      10.0000    195.0840
  384   3 Pt  78      10.010000    7.320001   19.740002      10.0000    195.0840
  385   3 Pt  78      -4.120000    7.190001   19.919998      10.0000    195.0840
  386   3 Pt  78      -1.170000    7.190001   19.959999      10.0000    195.0840
  387   3 Pt  78       1.650000    7.090001   19.830002      10.0000    195.0840
  388   3 Pt  78       5.840001    9.710001   19.880001      10.0000    195.0840
  389   3 Pt  78       8.610001    9.660000   19.770000      10.0000    195.0840
  390   3 Pt  78      -5.400000    9.690001   19.720001      10.0000    195.0840
  391   3 Pt  78      -2.600000    9.590000   19.740002      10.0000    195.0840
  392   3 Pt  78       0.290000    9.610001   19.910000      10.0000    195.0840
  393   3 Pt  78       3.050000    9.640000   19.919998      10.0000    195.0840
  394   3 Pt  78       7.210000   12.120000   19.919998      10.0000    195.0840
  395   3 Pt  78      -6.890000   12.120000   19.730000      10.0000    195.0840
  396   3 Pt  78      -3.980000   12.070000   19.800003      10.0000    195.0840
  397   3 Pt  78      -1.210000   11.960001   19.800003      10.0000    195.0840
  398   3 Pt  78       1.570000   12.060001   20.020000      10.0000    195.0840
  399   3 Pt  78       4.380000   12.150001   19.889999      10.0000    195.0840
  400   3 Pt  78       1.570000    0.730000   22.017999      10.0000    195.0840
  401   3 Pt  78       4.450000    0.670000   22.017999      10.0000    195.0840
  402   3 Pt  78       7.220001    0.700000   22.167999      10.0000    195.0840
  403   3 Pt  78       9.900001    0.660000   22.267999      10.0000    195.0840
  404   3 Pt  78      12.780001    0.640000   22.237999      10.0000    195.0840
  405   3 Pt  78      15.580001    0.670000   22.187999      10.0000    195.0840
  406   3 Pt  78       3.010000    3.010000   22.127999      10.0000    195.0840
  407   3 Pt  78       5.750000    3.190000   22.217999      10.0000    195.0840
  408   3 Pt  78       8.540000    3.180000   22.247999      10.0000    195.0840
  409   3 Pt  78      11.320001    3.090000   22.267999      10.0000    195.0840
  410   3 Pt  78      14.210001    3.100000   22.287999      10.0000    195.0840
  411   3 Pt  78       0.200000    3.040000   22.257999      10.0000    195.0840
  412   3 Pt  78       4.400000    5.560000   22.187999      10.0000    195.0840
  413   3 Pt  78       7.150001    5.710001   22.207999      10.0000    195.0840
  414   3 Pt  78       9.930000    5.610001   22.167999      10.0000    195.0840
  415   3 Pt  78      12.710000    5.420001   22.137999      10.0000    195.0840
  416   3 Pt  78      -1.250000    5.470000   22.157999      10.0000    195.0840
  417   3 Pt  78       1.690000    5.480001   22.117999      10.0000    195.0840
  418   3 Pt  78       5.800000    8.040000   22.187999      10.0000    195.0840
  419   3 Pt  78       8.610001    8.070001   22.167999      10.0000    195.0840
  420   3 Pt  78      11.370001    7.960001   22.167999      10.0000    195.0840
  421   3 Pt  78      -2.700000    7.940001   22.197999      10.0000    195.0840
  422   3 Pt  78       0.150000    7.880001   22.227999      10.0000    195.0840
  423   3 Pt  78       3.040000    8.030001   22.167999      10.0000    195.0840
  424   3 Pt  78       7.200000   10.559999   22.127999      10.0000    195.0840
  425   3 Pt  78       9.950001   10.450001   22.027999      10.0000    195.0840
  426   3 Pt  78      -4.040000   10.290001   22.057999      10.0000    195.0840
  427   3 Pt  78      -1.240000   10.320001   22.207999      10.0000    195.0840
  428   3 Pt  78       1.490000   10.450001   22.277999      10.0000    195.0840
  429   3 Pt  78       4.310000   10.410000   22.137999      10.0000    195.0840
  430   3 Pt  78       8.590000   12.890000   22.147999      10.0000    195.0840
  431   3 Pt  78      -5.520000   12.810000   21.907999      10.0000    195.0840
  432   3 Pt  78      -2.660000   12.830001   22.147999      10.0000    195.0840
  433   3 Pt  78       0.070000   12.770000   22.227999      10.0000    195.0840
  434   3 Pt  78       2.880000   12.880001   22.307999      10.0000    195.0840
  435   3 Pt  78       5.640000   12.920000   22.237999      10.0000    195.0840
  436   3 Pt  78       0.070000    1.430000   24.517999      10.0000    195.0840
  437   3 Pt  78       2.890000    1.410000   24.367999      10.0000    195.0840
  438   3 Pt  78       5.680000    1.430000   24.407999      10.0000    195.0840
  439   3 Pt  78       8.500000    1.490000   24.577999      10.0000    195.0840
  440   3 Pt  78      11.270000    1.440000   24.677999      10.0000    195.0840
  441   3 Pt  78      14.080001    1.490000   24.587999      10.0000    195.0840
  442   3 Pt  78       1.560000    3.930000   24.507999      10.0000    195.0840
  443   3 Pt  78       4.320000    3.900000   24.497999      10.0000    195.0840
  444   3 Pt  78       7.100000    3.870000   24.507999      10.0000    195.0840
  445   3 Pt  78       9.850000    4.020000   24.487999      10.0000    195.0840
  446   3 Pt  78      12.670001    3.880000   24.487999      10.0000    195.0840
  447   3 Pt  78      -1.270000    3.810000   24.537999      10.0000    195.0840
  448   3 Pt  78       2.960000    6.310000   24.487999      10.0000    195.0840
  449   3 Pt  78       5.680000    6.200000   24.547999      10.0000    195.0840
  450   3 Pt  78       8.490001    6.420000   24.517999      10.0000    195.0840
  451   3 Pt  78      11.320001    6.320000   24.557999      10.0000    195.0840
  452   3 Pt  78      -2.710000    6.220000   24.407999      10.0000    195.0840
  453   3 Pt  78       0.140000    6.320000   24.517999      10.0000    195.0840
  454   3 Pt  78       4.310000    8.800000   24.467999      10.0000    195.0840
  455   3 Pt  78       7.140000    8.690001   24.457999      10.0000    195.0840
  456   3 Pt  78      10.020000    8.780001   24.467999      10.0000    195.0840
  457   3 Pt  78      -4.070000    8.620001   24.547999      10.0000    195.0840
  458   3 Pt  78      -1.400000    8.700001   24.467999      10.0000    195.0840
  459   3 Pt  78       1.420000    8.680000   24.517999      10.0000    195.0840
  460   3 Pt  78       5.730000   11.250000   24.507999      10.0000    195.0840
  461   3 Pt  78       8.560000   11.170001   24.447999      10.0000    195.0840
  462   3 Pt  78      -5.570001   11.130000   24.477999      10.0000    195.0840
  463   3 Pt  78      -2.750000   11.200000   24.457999      10.0000    195.0840
  464   3 Pt  78       0.010000   11.230000   24.587999      10.0000    195.0840
  465   3 Pt  78       2.880000   11.270000   24.527999      10.0000    195.0840
  466   3 Pt  78       7.230001   13.560000   24.477999      10.0000    195.0840
  467   3 Pt  78      -6.880000   13.540001   24.237999      10.0000    195.0840
  468   3 Pt  78      -4.040000   13.550000   24.357999      10.0000    195.0840
  469   3 Pt  78      -1.350000   13.640001   24.607999      10.0000    195.0840
  470   3 Pt  78       1.340000   13.670001   24.597999      10.0000    195.0840
  471   3 Pt  78       4.380000   13.610001   24.627999      10.0000    195.0840
  472   3 Pt  78      -8.200001   14.280001   26.797999      10.0000    195.0840
  473   3 Pt  78      -5.490000   14.390000   26.567999      10.0000    195.0840
  474   3 Pt  78      -2.800000   14.460001   26.867999      10.0000    195.0840
  475   3 Pt  78       0.000000   14.390000   26.907999      10.0000    195.0840
  476   3 Pt  78       2.860000   14.480001   26.927999      10.0000    195.0840
  477   3 Pt  78       5.810000   14.390000   26.797999      10.0000    195.0840
  478   3 Pt  78       1.430000    2.210000   26.837999      10.0000    195.0840
  479   3 Pt  78       4.220000    2.220000   26.677999      10.0000    195.0840
  480   3 Pt  78       7.090001    2.260000   26.937999      10.0000    195.0840
  481   3 Pt  78       9.830000    2.240000   26.807999      10.0000    195.0840
  482   3 Pt  78      12.800001    2.330000   26.827999      10.0000    195.0840
  483   3 Pt  78      -1.380000    2.310000   26.997999      10.0000    195.0840
  484   3 Pt  78       2.870000    4.630000   26.797999      10.0000    195.0840
  485   3 Pt  78       5.620000    4.560000   26.827999      10.0000    195.0840
  486   3 Pt  78       8.520000    4.690000   26.897999      10.0000    195.0840
  487   3 Pt  78      11.250000    4.650001   26.887999      10.0000    195.0840
  488   3 Pt  78      -2.740000    4.730000   26.877999      10.0000    195.0840
  489   3 Pt  78       0.020000    4.670000   26.807999      10.0000    195.0840
  490   3 Pt  78       4.090000    7.150001   26.857999      10.0000    195.0840
  491   3 Pt  78       6.890000    7.120000   26.777999      10.0000    195.0840
  492   3 Pt  78       9.760000    7.110000   26.857999      10.0000    195.0840
  493   3 Pt  78      -4.190001    7.170000   26.877999      10.0000    195.0840
  494   3 Pt  78      -1.400000    7.190001   26.777999      10.0000    195.0840
  495   3 Pt  78       1.370000    7.160000   26.867999      10.0000    195.0840
  496   3 Pt  78       5.620000    9.540001   26.937999      10.0000    195.0840
  497   3 Pt  78       8.410000    9.650001   26.937999      10.0000    195.0840
  498   3 Pt  78      -5.620000    9.530001   26.877999      10.0000    195.0840
  499   3 Pt  78      -2.850000    9.650001   26.887999      10.0000    195.0840
  500   3 Pt  78      -0.140000    9.620001   26.867999      10.0000    195.0840
  501   3 Pt  78       2.750000    9.500000   26.687999      10.0000    195.0840
  502   3 Pt  78       7.050000   11.980001   26.827999      10.0000    195.0840
  503   3 Pt  78      -6.970000   11.920000   26.807999      10.0000    195.0840
  504   3 Pt  78      -4.310000   11.990000   27.027999      10.0000    195.0840
  505   3 Pt  78      -1.610000   11.980001   26.837999      10.0000    195.0840
[...]
 flops    13 x    32 x    13           5546736832       0.0%    100.0%      0.0%
 flops    13 x     5 x   112           6879818400       0.0%    100.0%      0.0%
 flops     5 x    13 x   112           6884273760       0.0%    100.0%      0.0%
 flops    13 x    13 x   112           8209149312       0.0%    100.0%      0.0%
 flops    13 x    32 x    20           8355809280       0.0%    100.0%      0.0%
 flops    20 x    32 x    13           8355809280       0.0%    100.0%      0.0%
 flops    20 x    32 x     5           8978419200       0.0%    100.0%      0.0%
 flops     5 x    32 x    20           8978419200       0.0%    100.0%      0.0%
 flops     5 x     5 x    96           9258336000       0.0%    100.0%      0.0%
 flops    13 x     5 x    96          11793974400       0.0%    100.0%      0.0%
 flops     5 x    13 x    96          11801612160       0.0%    100.0%      0.0%
 flops    13 x    20 x   112          12216597120       0.0%    100.0%      0.0%
 flops    20 x    13 x   112          12234418560       0.0%    100.0%      0.0%
 flops     5 x    20 x   112          13123891200       0.0%    100.0%      0.0%
 flops    20 x     5 x   112          13149024000       0.0%    100.0%      0.0%
 flops    13 x    13 x    96          14072827392       0.0%    100.0%      0.0%
 flops    13 x    20 x    96          20942737920       0.0%    100.0%      0.0%
 flops    20 x    13 x    96          20973288960       0.0%    100.0%      0.0%
 flops     5 x    20 x    96          22498099200       0.0%    100.0%      0.0%
 flops    20 x     5 x    96          22541184000       0.0%    100.0%      0.0%
 flops    20 x    32 x    20          72858009600       0.0%    100.0%      0.0%
 flops     5 x     5 x   128          80238912000       0.0%    100.0%      0.0%
 flops    13 x     5 x   128         102214444800       0.0%    100.0%      0.0%
 flops     5 x    13 x   128         102280638720       0.0%    100.0%      0.0%
 flops    20 x    20 x   112         107093145600       0.0%    100.0%      0.0%
 flops    13 x    13 x   128         121964504064       0.0%    100.0%      0.0%
 flops    13 x    20 x   128         181503728640       0.0%    100.0%      0.0%
 flops    20 x    13 x   128         181768504320       0.0%    100.0%      0.0%
 flops    20 x    20 x    96         183588249600       0.0%    100.0%      0.0%
 flops     5 x    20 x   128         194983526400       0.0%    100.0%      0.0%
 flops    20 x     5 x   128         195356928000       0.0%    100.0%      0.0%
 flops    20 x    20 x   128        1591098163200       0.0%    100.0%      0.0%
 flops inhomo. stacks                           0       0.0%      0.0%      0.0%
 flops total                         3.381258E+12       0.0%    100.0%      0.0%
 flops max/rank                     32.138328E+09       0.0%    100.0%      0.0%
 matmuls inhomo. stacks                         0       0.0%      0.0%      0.0%
 matmuls total                           90550726       0.0%    100.0%      0.0%
 number of processed stacks                961141       0.0%    100.0%      0.0%
 average stack size                                     0.0      94.2       0.0
 marketing flops                     6.858687E+12
 -------------------------------------------------------------------------------
 # multiplications                             52
 max memory usage/rank               1.622221E+09
 # max total images/rank                        2
 # max 3D layers                                1
 # MPI messages exchanged                  193024
 MPI messages size (bytes):
  total size                       120.321516E+09
  min size                         290.304000E+03
  max size                           2.224840E+06
  average size                     623.350000E+03
 MPI breakdown and total messages size (bytes):
             size <=      128                   0                        0
       128 < size <=     8192                   0                        0
      8192 < size <=    32768                   0                        0
     32768 < size <=   131072                   0                        0
    131072 < size <=  4194304              193024             120321518136
   4194304 < size <= 16777216                   0                        0
  16777216 < size                               0                        0
 -------------------------------------------------------------------------------

 *** WARNING in dbcsr_mm.F:290 :: Using a non-square number of MPI ranks ***
 *** might lead to poor performance. Used ranks: 128 Suggested: 121 256  ***

 -------------------------------------------------------------------------------
 -                                                                             -
 -                      DBCSR MESSAGE PASSING PERFORMANCE                      -
 -                                                                             -
 -------------------------------------------------------------------------------
 ROUTINE             CALLS      AVE VOLUME [Bytes]
 MP_Bcast               46                     12.
 MP_Allreduce          467                     12.
 MP_Alltoall          1449                 565856.
 MP_ISend             3328                 294776.
 MP_IRecv             3328                 288341.
 -------------------------------------------------------------------------------

 -------------------------------------------------------------------------------
 -                                                                             -
 -                                DBM STATISTICS                               -
 -                                                                             -
 -------------------------------------------------------------------------------
    M  x    N  x    K                                          COUNT     PERCENT
 -------------------------------------------------------------------------------

 -------------------------------------------------------------------------------
 -                                                                             -
 -                                GRID STATISTICS                              -
 -                                                                             -
 -------------------------------------------------------------------------------
 LP    KERNEL             BACKEND                              COUNT     PERCENT
 4     collocate general  REF                               20182000      22.55%
 4     integrate general  REF                               20052970      22.40%
 3     collocate general  REF                               13730500      15.34%
 3     integrate general  REF                               13670101      15.27%
 2     collocate general  REF                               10710550      11.97%
 2     integrate general  REF                               10496339      11.73%
 5     integrate general  REF                                 403640       0.45%
 0     collocate general  REF                                 129792       0.15%
 0     integrate general  REF                                  64896       0.07%
 1     integrate general  REF                                  64896       0.07%
 -------------------------------------------------------------------------------

 MEMORY| Estimated peak process memory [MiB]                                1807

 -------------------------------------------------------------------------------
 ----                             MULTIGRID INFO                            ----
 -------------------------------------------------------------------------------
 count for grid        1:        1092849          cutoff [a.u.]          200.00
 count for grid        2:        1087943          cutoff [a.u.]           66.67
 count for grid        3:         710009          cutoff [a.u.]           22.22
 count for grid        4:         546992          cutoff [a.u.]            7.41
 total gridlevel count  :        3437793

 -------------------------------------------------------------------------------
 -                                                                             -
 -                         MESSAGE PASSING PERFORMANCE                         -
 -                                                                             -
 -------------------------------------------------------------------------------

 ROUTINE             CALLS      AVE VOLUME [Bytes]
 MP_Group                4
 MP_Bcast             2230                 301903.
 MP_Allreduce         3687                  28959.
 MP_Sync               106
 MP_Alltoall          3022               16226817.
 MP_SendRecv           508                   6213.
 MP_ISendRecv        25400                  61740.
 MP_Wait             44864
 MP_comm_split          51
 MP_ISend            18344                 255994.
 MP_IRecv            18344                 255994.
 MP_Recv               183                1677056.
 MP_Write_All            3                1797408.
 -------------------------------------------------------------------------------


 -------------------------------------------------------------------------------
 -                                                                             -
 -                           R E F E R E N C E S                               -
 -                                                                             -
 -------------------------------------------------------------------------------
 
 CP2K version 2022.1, the CP2K developers group (2022).
 CP2K is freely available from https://www.cp2k.org/ .

 Kuehne,Thomas D.; Iannuzzi,Marcella; Del Ben,Mauro;
 Rybkin,Vladimir V.; Seewald,Patrick; Stein,Frederick; Laino,Teodoro;
 Khaliullin,Rustam Z.; Schuett,Ole; Schiffmann,Florian; Golze,Dorothea;
 Wilhelm,Jan; Chulkov,Sergey; Bani-Hashemian,Mohammad Hossein;
 Weber,Valery; Borstnik,Urban; Taillefumier,Mathieu;
 Jakobovits,Alice Shoshana; Lazzaro,Alfio; Pabst,Hans; Mueller,Tiziano;
 Schade,Robert; Guidon,Manuel; Andermatt,Samuel; Holmberg,Nico;
 Schenter,Gregory K.; Hehn,Anna; Bussy,Augustin; Belleflamme,Fabian;
 Tabacchi,Gloria; Gloess,Andreas; Lass,Michael; Bethune,Iain;
 Mundy,Christopher J.; Plessl,Christian; Watkins,Matt;
 VandeVondele,Joost; Krack,Matthias; Hutter,Juerg. 
 The Journal of Chemical Physics, 152 (19), (2020). 
 CP2K: An electronic structure and molecular dynamics software package -
 Quickstep: Efficient and accurate electronic structure calculations.
 https://doi.org/10.1063/5.0007045

 Goerigk, Lars; Hansen, Andreas; Bauer, Christoph; Ehrlich, Stephan;
 Najibi, Asim; Grimme, Stefan. , 19 (48), (2017). 
 A look at the density functional theory zoo with the advanced GMTKN55 database
 for general main group thermochemistry, kinetics and noncovalent interactions.
 https://doi.org/10.1039/C7CP04913G

 Bani-Hashemian, MH; Bruck, S; Luisier, M; VandeVondele, J. 
 JOURNAL OF CHEMICAL PHYSICS, 144 (4), 044113 (2016). 
 A generalized Poisson solver for first-principles device simulations.
 https://doi.org/10.1063/1.4940796

 Schuett, Ole; Messmer, Peter; Hutter, Juerg; VandeVondele, Joost. 
 Electronic Structure Calculations on Graphics Processing Units, John
 Wiley & Sons, Ltd, 173-190 (2016). 
 GPU-Accelerated Sparse Matrix-Matrix Multiplication for
 Linear Scaling Density Functional Theory.
 https://doi.org/10.1002/9781118670712.ch8

 Heinecke, A; Henry, G; Hutchinson, M; Pabst, H. 
 Proceedings of Intl. Supercomputing Conference, 981-991 (2016). 
 LIBXSMM: Accelerating Small Matrix Multiplications
 by Runtime Code Generation.
 https://doi.org/10.1109/SC.2016.83

 Borstnik, U; VandeVondele, J; Weber, V; Hutter, J. 
 PARALLEL COMPUTING, 40 (5-6), 47-58 (2014). 
 Sparse matrix multiplication: The distributed block-compressed sparse
 row library.
 https://doi.org/10.1016/j.parco.2014.03.012

 Hutter, J; Iannuzzi, M; Schiffmann, F; VandeVondele, J. 
 WIREs Comput Mol Sci., 4 (1), 15-25 (2014). 
 CP2K: atomistic simulations of condensed matter systems.
 https://doi.org/10.1002/wcms.1159

 Marek, A; Blum, V; Johanni, R; Havu, V; Lang, B; Auckenthaler, T;
 Heinecke, A; Bungartz, H; Lederer, H. 
 Journal of Physics: Condensed Matter, 26 (21), (2014). 
 The ELPA library: scalable parallel eigenvalue solutions for
 electronic structure
 theory and computational science.
 https://doi.org/10.1088/0953-8984/26/21/213201

 Grimme, S; Ehrlich, S; Goerigk, L. 
 JOURNAL OF COMPUTATIONAL CHEMISTRY, 32, 1456 (2011). 
 Effect of the damping function in dispersion corrected density functional theory.
 https://doi.org/10.1002/jcc.21759

 Grimme, S; Antony, J; Ehrlich, S; Krieg, H. 
 JOURNAL OF CHEMICAL PHYSICS, 132 (15), 154104 (2010). 
 A consistent and accurate ab initio parametrization of density
 functional dispersion correction (DFT-D) for the 94 elements H-Pu.
 https://doi.org/10.1063/1.3382344

 VandeVondele, J; Hutter, J. 
 JOURNAL OF CHEMICAL PHYSICS, 127 (11), 114105 (2007). 
 Gaussian basis sets for accurate calculations on molecular systems in
 gas and condensed phases.
 https://doi.org/10.1063/1.2770708

 Krack, M. 
 THEORETICAL CHEMISTRY ACCOUNTS, 114 (1-3), 145-152 (2005). 
 Pseudopotentials for H to Kr optimized for gradient-corrected
 exchange-correlation functionals.
 https://doi.org/10.1007/s00214-005-0655-y

 VandeVondele, J; Krack, M; Mohamed, F; Parrinello, M; Chassaing, T;
 Hutter, J. COMPUTER PHYSICS COMMUNICATIONS, 167 (2), 103-128 (2005). 
 QUICKSTEP: Fast and accurate density functional calculations using a
 mixed Gaussian and plane waves approach.
 https://doi.org/10.1016/j.cpc.2004.12.014

 Frigo, M; Johnson, SG. 
 PROCEEDINGS OF THE IEEE, 93 (2), 216-231 (2005). 
 The design and implementation of FFTW3.
 https://doi.org/10.1109/JPROC.2004.840301

 Hartwigsen, C; Goedecker, S; Hutter, J. 
 PHYSICAL REVIEW B, 58 (7), 3641-3662 (1998). 
 Relativistic separable dual-space Gaussian pseudopotentials from H to Rn.
 https://doi.org/10.1103/PhysRevB.58.3641

 Lippert, G; Hutter, J; Parrinello, M. 
 MOLECULAR PHYSICS, 92 (3), 477-487 (1997). 
 A hybrid Gaussian and plane wave density functional scheme.
 https://doi.org/10.1080/002689797170220

 Perdew, JP; Burke, K; Ernzerhof, M. 
 PHYSICAL REVIEW LETTERS, 77 (18), 3865-3868 (1996). 
 Generalized gradient approximation made simple.
 https://doi.org/10.1103/PhysRevLett.77.3865

 Goedecker, S; Teter, M; Hutter, J. 
 PHYSICAL REVIEW B, 54 (3), 1703-1710 (1996). 
 Separable dual-space Gaussian pseudopotentials.
 https://doi.org/10.1103/PhysRevB.54.1703


 -------------------------------------------------------------------------------
 -                                                                             -
 -                                T I M I N G                                  -
 -                                                                             -
 -------------------------------------------------------------------------------
 SUBROUTINE                       CALLS  ASD         SELF TIME        TOTAL TIME
                                MAXIMUM       AVERAGE  MAXIMUM  AVERAGE  MAXIMUM
 CP2K                                 1  1.0    0.018    0.032  351.536  351.540
 qs_forces                            1  2.0    0.002    0.002  351.205  351.208
 qs_energies                          1  3.0    0.000    0.001  344.898  344.902
 scf_env_do_scf                       1  4.0    0.000    0.000  335.884  336.021
 scf_env_do_scf_inner_loop           49  5.0    0.003    0.006  335.881  336.017
 rebuild_ks_matrix                   50  6.9    0.000    0.000  181.516  181.550
 qs_ks_build_kohn_sham_matrix        50  7.9    0.007    0.009  181.516  181.550
 qs_ks_update_qs_env                 49  6.0    0.000    0.000  177.364  177.400
 pw_transfer                       2604 12.2    0.191    0.229  113.234  115.410
 fft_wrap_pw1pw2                   2604 13.2    0.025    0.029  113.043  115.192
 fft_wrap_pw1pw2_200               2304 14.4    7.652    9.050  111.427  113.516
 pw_poisson_solve                    50  8.9    0.005    0.014   97.657   97.700
 qs_scf_new_mos                      49  6.0    0.002    0.007   94.044   94.170
 fft3d_ps                          2604 15.2   32.675   36.141   90.910   94.109
 implicit_poisson_solver_mixed_      50  9.9    2.055    2.498   92.558   92.631
 eigensolver                         49  7.0    0.004    0.005   88.790   89.048
 derive_fft                         300 12.1    0.018    0.021   64.981   65.167
 cp_fm_diag_elpa                     51  8.0    0.001    0.001   62.330   62.489
 cp_fm_redistribute_end              51  9.0    8.235   61.751    8.331   61.808
 cp_fm_diag_elpa_base                51  9.0   52.636   60.343   53.170   60.944
 mp_alltoall_z22v                  2604 17.2   48.638   60.020   48.638   60.020
 qs_rho_update_rho_low               50  6.0    0.000    0.000   56.924   56.936
 calculate_rho_elec                  50  7.0    0.097    0.121   56.923   56.936
 sum_up_and_integrate                50  8.9    0.271    0.327   56.291   56.341
 integrate_v_rspace                  50  9.9    0.002    0.003   56.020   56.136
 apply_P_operator                   250 11.1    1.331    1.513   55.526   55.699
 grid_collocate_task_list            50  8.0   35.714   44.874   35.714   44.874
 grid_integrate_task_list            50 10.9   33.068   40.789   33.068   40.789
 x_to_yz                           1501 16.4    6.349    8.014   36.517   38.176
 rs_pw_transfer                     404 10.4    0.005    0.010   26.314   30.935
 cp_fm_triangular_multiply          147  8.0   27.793   28.140   27.793   28.140
 yz_to_x                            803 16.4    2.183    2.567   20.459   27.739
 qs_vxc_create                       50  8.9    0.001    0.002   24.745   25.042
 xc_vxc_pw_create                    50  9.9    0.425    0.537   24.744   25.041
 density_rs2pw                       50  8.0    0.003    0.004   20.015   24.773
 xc_pw_derive                       300 11.9    0.005    0.005   17.489   19.370
 mp_waitany                       18344 12.4   12.666   17.397   12.666   17.397
 rs_pw_transfer_RS2PW_200            52  9.9    3.361    3.795   12.365   17.007
 apply_poisson_operator_fft          50 10.9    0.001    0.001   16.118   16.387
 apply_inv_laplace_operator_fft     152 11.6    0.381    0.441   14.713   15.242
 potential_pw2rs                     50 10.9    0.015    0.017   14.666   14.767
 mp_alltoall_d11v                   722 10.3    9.789   14.404    9.789   14.404
 xc_pw_divergence                    50 10.9    0.002    0.003   11.862   13.274
 xc_rho_set_and_dset_create          50 10.9    0.248    0.291   12.020   13.134
 rs_gather_matrices                  50 10.9    0.062    0.082    8.274   12.814
 ps_implicit_compute_error_fft      100 10.9    0.630    0.765   10.951   11.709
 ps_implicit_compute_veps            50 10.9    0.289    0.340   11.078   11.265
 pw_scatter_p                      1651 15.4    9.219   10.700    9.219   10.700
 rs_pw_transfer_PW2RS_200            52 12.8    3.941    4.171    8.254    8.543
 gspace_mixing                       48  6.0    0.092    0.112    8.383    8.395
 pw_derive                         1200 13.1    7.621    8.142    7.621    8.142
 -------------------------------------------------------------------------------

 The number of warnings for this run is : 1
 
 -------------------------------------------------------------------------------
  **** **** ******  **  PROGRAM ENDED AT                 2023-12-03 02:47:13.068
 ***** ** ***  *** **   PROGRAM RAN ON                                     cu001
 **    ****   ******    PROGRAM RAN BY                                     jxzhu
 ***** **    ** ** **   PROGRAM PROCESS ID                                 46607
  **** **  *******  **  PROGRAM STOPPED IN /public/home/jxzhu/tmp_calc/242f4c860
                                           f5b5e6a1d389d48ff6d7f67fef8ff53/calc/
                                           002500.000/search_lo.000000
