 DBCSR| CPU Multiplication driver                                           XSMM
 DBCSR| Multrec recursion limit                                              512
 DBCSR| Multiplication stack size                                           1000
 DBCSR| Maximum elements for images                                    UNLIMITED
 DBCSR| Multiplicative factor virtual images                                   1
 DBCSR| Use multiplication densification                                       T
 DBCSR| Multiplication size stacks                                             3
 DBCSR| Use memory pool for CPU allocation                                     F
 DBCSR| Number of 3D layers                                               SINGLE
 DBCSR| Use MPI memory allocation                                              F
 DBCSR| Use RMA algorithm                                                      F
 DBCSR| Use Communication thread                                               T
 DBCSR| Communication thread load                                             87
 DBCSR| MPI: My node id                                                        0
 DBCSR| MPI: Number of nodes                                                  32
 DBCSR| OMP: Current number of threads                                         1
 DBCSR| OMP: Max number of threads                                             1
 DBCSR| Split modifier for TAS multiplication algorithm                  1.0E+00


  **** **** ******  **  PROGRAM STARTED AT               2023-12-03 00:00:05.086
 ***** ** ***  *** **   PROGRAM STARTED ON                                 cu042
 **    ****   ******    PROGRAM STARTED BY                                 jxzhu
 ***** **    ** ** **   PROGRAM PROCESS ID                                 44333
  **** **  *******  **  PROGRAM STARTED IN /public/home/jxzhu/tmp_calc/04c0855f9
                                           8753fac23fde4df51ba20f3741a9e9a/calc/
                                           task.000.000008

 CP2K| version string:                                       CP2K version 2022.1
 CP2K| source code revision number:                                  git:2caeb6f
 CP2K| cp2kflags: omp libint fftw3 libxc elpa parallel mpi3 scalapack cosma xsmm
 CP2K|             plumed2 spglib mkl sirius libvori libbqb
 CP2K| is freely available from                            https://www.cp2k.org/
 CP2K| Program compiled at                           Mon Jul 3 17:37:06 CST 2023
 CP2K| Program compiled on                                                 mu003
 CP2K| Program compiled for                                                local
 CP2K| Data directory path                             /public/home/jxzhu/basis/
 CP2K| Input file name                                                 input.inp
 
 GLOBAL| Force Environment number                                              1
 GLOBAL| Basis set file name                                        BASIS_MOLOPT
 GLOBAL| Potential file name                                      GTH_POTENTIALS
 GLOBAL| MM Potential file name                                     MM_POTENTIAL
 GLOBAL| Coordinate file name                                          coord.xyz
 GLOBAL| Method name                                                        CP2K
 GLOBAL| Project name                                                       cp2k
 GLOBAL| Run type                                                   ENERGY_FORCE
 GLOBAL| FFT library                                                       FFTW3
 GLOBAL| Diagonalization library                                            ELPA
 GLOBAL| Minimum number of eigenvectors for ELPA usage                        16
 GLOBAL| Orthonormality check for eigenvectors                          DISABLED
 GLOBAL| Matrix multiplication library                                     COSMA
 GLOBAL| All-to-all communication in single precision                          F
 GLOBAL| FFTs using library dependent lengths                                  T
 GLOBAL| Grid backend                                                       AUTO
 GLOBAL| Global print level                                               MEDIUM
 GLOBAL| MPI I/O enabled                                                       T
 GLOBAL| Total number of message passing processes                            32
 GLOBAL| Number of threads for this process                                    1
 GLOBAL| This output is from process                                           0
 GLOBAL| Stack size for threads created by OpenMP (OMP_STACKSIZE)        default
 GLOBAL| CPU model name                 Intel(R) Xeon(R) Gold 6338 CPU @ 2.00GHz
 GLOBAL| CPUID                                                              1003

 MEMORY| system memory details [Kb]
 MEMORY|                        rank 0           min           max       average
 MEMORY| MemTotal            263619172     263619172     263619172     263619172
 MEMORY| MemFree             180066000     180066000     180066000     180066000
 MEMORY| Buffers                  3320          3320          3320          3320
 MEMORY| Cached                7072940       7072940       7072940       7072940
 MEMORY| Slab                  1796464       1796464       1796464       1796464
 MEMORY| SReclaimable           244060        244060        244060        244060
 MEMORY| MemLikelyFree       187386320     187386320     187386320     187386320


 *** Fundamental physical constants (SI units) ***

 *** Literature: B. J. Mohr and B. N. Taylor,
 ***             CODATA recommended values of the fundamental physical
 ***             constants: 2006, Web Version 5.1
 ***             http://physics.nist.gov/constants

 Speed of light in vacuum [m/s]                             2.99792458000000E+08
 Magnetic constant or permeability of vacuum [N/A**2]       1.25663706143592E-06
 Electric constant or permittivity of vacuum [F/m]          8.85418781762039E-12
 Planck constant (h) [J*s]                                  6.62606896000000E-34
 Planck constant (h-bar) [J*s]                              1.05457162825177E-34
 Elementary charge [C]                                      1.60217648700000E-19
 Electron mass [kg]                                         9.10938215000000E-31
 Electron g factor [ ]                                     -2.00231930436220E+00
 Proton mass [kg]                                           1.67262163700000E-27
 Fine-structure constant                                    7.29735253760000E-03
 Rydberg constant [1/m]                                     1.09737315685270E+07
 Avogadro constant [1/mol]                                  6.02214179000000E+23
 Boltzmann constant [J/K]                                   1.38065040000000E-23
 Atomic mass unit [kg]                                      1.66053878200000E-27
 Bohr radius [m]                                            5.29177208590000E-11

 *** Conversion factors ***

 [u] -> [a.u.]                                              1.82288848426455E+03
 [Angstrom] -> [Bohr] = [a.u.]                              1.88972613288564E+00
 [a.u.] = [Bohr] -> [Angstrom]                              5.29177208590000E-01
 [a.u.] -> [s]                                              2.41888432650478E-17
 [a.u.] -> [fs]                                             2.41888432650478E-02
 [a.u.] -> [J]                                              4.35974393937059E-18
 [a.u.] -> [N]                                              8.23872205491840E-08
 [a.u.] -> [K]                                              3.15774647902944E+05
 [a.u.] -> [kJ/mol]                                         2.62549961709828E+03
 [a.u.] -> [kcal/mol]                                       6.27509468713739E+02
 [a.u.] -> [Pa]                                             2.94210107994716E+13
 [a.u.] -> [bar]                                            2.94210107994716E+08
 [a.u.] -> [atm]                                            2.90362800883016E+08
 [a.u.] -> [eV]                                             2.72113838565563E+01
 [a.u.] -> [Hz]                                             6.57968392072181E+15
 [a.u.] -> [1/cm] (wave numbers)                            2.19474631370540E+05
 [a.u./Bohr**2] -> [1/cm]                                   5.14048714338585E+03
 

 CELL_TOP| Volume [angstrom^3]:                                     12686.086737
 CELL_TOP| Vector a [angstrom    16.869     0.000     0.000   |a| =    16.869000
 CELL_TOP| Vector b [angstrom    -8.434    14.609     0.000   |b| =    16.868929
 CELL_TOP| Vector c [angstrom     0.000     0.000    51.478   |c| =    51.477900
 CELL_TOP| Angle (b,c), alpha [degree]:                                90.000000
 CELL_TOP| Angle (a,c), beta  [degree]:                                90.000000
 CELL_TOP| Angle (a,b), gamma [degree]:                               120.000140
 CELL_TOP| Numerically orthorhombic:                                          NO
 
 GENERATE|  Preliminary Number of Bonds generated:                             0
 GENERATE|  Achieved consistency in connectivity generation.

 CELL| Volume [angstrom^3]:                                         12686.086737
 CELL| Vector a [angstrom]:      16.869     0.000     0.000   |a| =    16.869000
 CELL| Vector b [angstrom]:      -8.434    14.609     0.000   |b| =    16.868929
 CELL| Vector c [angstrom]:       0.000     0.000    51.478   |c| =    51.477900
 CELL| Angle (b,c), alpha [degree]:                                    90.000000
 CELL| Angle (a,c), beta  [degree]:                                    90.000000
 CELL| Angle (a,b), gamma [degree]:                                   120.000140
 CELL| Numerically orthorhombic:                                              NO

 CELL_REF| Volume [angstrom^3]:                                     12686.086737
 CELL_REF| Vector a [angstrom    16.869     0.000     0.000   |a| =    16.869000
 CELL_REF| Vector b [angstrom    -8.434    14.609     0.000   |b| =    16.868929
 CELL_REF| Vector c [angstrom     0.000     0.000    51.478   |c| =    51.477900
 CELL_REF| Angle (b,c), alpha [degree]:                                90.000000
 CELL_REF| Angle (a,c), beta  [degree]:                                90.000000
 CELL_REF| Angle (a,b), gamma [degree]:                               120.000140
 CELL_REF| Numerically orthorhombic:                                          NO

 *******************************************************************************
 *******************************************************************************
 **                                                                           **
 **     #####                         ##              ##                      **
 **    ##   ##            ##          ##              ##                      **
 **   ##     ##                       ##            ######                    **
 **   ##     ##  ##   ##  ##   #####  ##  ##   ####   ##    #####    #####    **
 **   ##     ##  ##   ##  ##  ##      ## ##   ##      ##   ##   ##  ##   ##   **
 **   ##  ## ##  ##   ##  ##  ##      ####     ###    ##   ######   ######    **
 **    ##  ###   ##   ##  ##  ##      ## ##      ##   ##   ##       ##        **
 **     #######   #####   ##   #####  ##  ##  ####    ##    #####   ##        **
 **           ##                                                    ##        **
 **                                                                           **
 **                                                ... make the atoms dance   **
 **                                                                           **
 **            Copyright (C) by CP2K developers group (2000-2022)             **
 **                      J. Chem. Phys. 152, 194103 (2020)                    **
 **                                                                           **
 *******************************************************************************

 DFT| Spin restricted Kohn-Sham (RKS) calculation                            RKS
 DFT| Multiplicity                                                             1
 DFT| Number of spin states                                                    1
 DFT| Charge                                                                   0
 DFT| Self-interaction correction (SIC)                                       NO
 DFT| Cutoffs: density                                              1.000000E-10
 DFT|          gradient                                             1.000000E-10
 DFT|          tau                                                  1.000000E-10
 DFT|          cutoff_smoothing_range                               0.000000E+00
 DFT| XC density smoothing                                                  NONE
 DFT| XC derivatives                                                          PW

 FUNCTIONAL| PBE:
 FUNCTIONAL| J.P.Perdew, K.Burke, M.Ernzerhof, Phys. Rev. Letter, vol. 77, n 18,
 FUNCTIONAL|  pp. 3865-3868, (1996){spin unpolarized}                           

 vdW POTENTIAL|                                                   Pair Potential
 vdW POTENTIAL|          DFT-D3 (Version 3.1)
 vdW POTENTIAL|          Potential Form: S. Grimme et al, JCP 132: 154104 (2010)
 vdW POTENTIAL|          Zero Damping
 vdW POTENTIAL|          Cutoff Radius [Bohr]:                             20.00
 vdW POTENTIAL|          s6 Scaling Factor:                               1.0000
 vdW POTENTIAL|          sr6 Scaling Factor:                              1.2170
 vdW POTENTIAL|          s8 Scaling Factor:                               0.7220
 vdW POTENTIAL|          Cutoff for CN calculation:                   0.1000E-05

 QS| Method:                                                                 GPW
 QS| Density plane wave grid type                        NON-SPHERICAL FULLSPACE
 QS| Number of grid levels:                                                    4
 QS| Density cutoff [a.u.]:                                                200.0
 QS| Multi grid cutoff [a.u.]: 1) grid level                               200.0
 QS|                           2) grid level                                66.7
 QS|                           3) grid level                                22.2
 QS|                           4) grid level                                 7.4
 QS| Grid level progression factor:                                          3.0
 QS| Relative density cutoff [a.u.]:                                        20.0
 QS| Interaction thresholds: eps_pgf_orb:                                3.2E-07
 QS|                         eps_filter_matrix:                          0.0E+00
 QS|                         eps_core_charge:                            1.0E-15
 QS|                         eps_rho_gspace:                             1.0E-13
 QS|                         eps_rho_rspace:                             1.0E-13
 QS|                         eps_gvg_rspace:                             3.2E-07
 QS|                         eps_ppl:                                    1.0E-02
 QS|                         eps_ppnl:                                   3.2E-09


 ATOMIC KIND INFORMATION

  1. Atomic kind: Pt                                    Number of atoms:     216

     Orbital Basis Set                      DZVP-A5-Q10-323-MOL-T1-DERIVED_SET-1

       Number of orbital shell sets:                                           1
       Number of orbital shells:                                               6
       Number of primitive Cartesian functions:                                5
       Number of Cartesian basis functions:                                   23
       Number of spherical basis functions:                                   20
       Norm type:                                                              2

       Normalised Cartesian orbitals:

                        Set   Shell   Orbital            Exponent    Coefficient

                          1       1    2s                2.521825       0.177473
                                                         1.453920      -0.063399
                                                         0.614053      -0.407089
                                                         0.232656       0.262254
                                                         0.074788       0.047371

                          1       2    3s                2.521825      -0.049056
                                                         1.453920       0.044904
                                                         0.614053      -0.009756
                                                         0.232656      -0.144709
                                                         0.074788       0.144085

                          1       3    3px               2.521825      -0.317572
                                                         1.453920       0.534826
                                                         0.614053      -0.489458
                                                         0.232656       0.245631
                                                         0.074788       0.018221
                          1       3    3py               2.521825      -0.317572
                                                         1.453920       0.534826
                                                         0.614053      -0.489458
                                                         0.232656       0.245631
                                                         0.074788       0.018221
                          1       3    3pz               2.521825      -0.317572
                                                         1.453920       0.534826
                                                         0.614053      -0.489458
                                                         0.232656       0.245631
                                                         0.074788       0.018221

                          1       4    4dx2              2.521825       3.008522
                                                         1.453920      -1.224251
                                                         0.614053       0.225691
                                                         0.232656       0.125144
                                                         0.074788      -0.015348
                          1       4    4dxy              2.521825       5.210912
                                                         1.453920      -2.120465
                                                         0.614053       0.390909
                                                         0.232656       0.216756
                                                         0.074788      -0.026584
                          1       4    4dxz              2.521825       5.210912
                                                         1.453920      -2.120465
                                                         0.614053       0.390909
                                                         0.232656       0.216756
                                                         0.074788      -0.026584
                          1       4    4dy2              2.521825       3.008522
                                                         1.453920      -1.224251
                                                         0.614053       0.225691
                                                         0.232656       0.125144
                                                         0.074788      -0.015348
                          1       4    4dyz              2.521825       5.210912
                                                         1.453920      -2.120465
                                                         0.614053       0.390909
                                                         0.232656       0.216756
                                                         0.074788      -0.026584
                          1       4    4dz2              2.521825       3.008522
                                                         1.453920      -1.224251
                                                         0.614053       0.225691
                                                         0.232656       0.125144
                                                         0.074788      -0.015348

                          1       5    5dx2              2.521825       0.698026
                                                         1.453920      -1.511486
                                                         0.614053      -0.335394
                                                         0.232656      -0.025564
                                                         0.074788      -0.002699
                          1       5    5dxy              2.521825       1.209017
                                                         1.453920      -2.617970
                                                         0.614053      -0.580920
                                                         0.232656      -0.044277
                                                         0.074788      -0.004674
                          1       5    5dxz              2.521825       1.209017
                                                         1.453920      -2.617970
                                                         0.614053      -0.580920
                                                         0.232656      -0.044277
                                                         0.074788      -0.004674
                          1       5    5dy2              2.521825       0.698026
                                                         1.453920      -1.511486
                                                         0.614053      -0.335394
                                                         0.232656      -0.025564
                                                         0.074788      -0.002699
                          1       5    5dyz              2.521825       1.209017
                                                         1.453920      -2.617970
                                                         0.614053      -0.580920
                                                         0.232656      -0.044277
                                                         0.074788      -0.004674
                          1       5    5dz2              2.521825       0.698026
                                                         1.453920      -1.511486
                                                         0.614053      -0.335394
                                                         0.232656      -0.025564
                                                         0.074788      -0.002699

                          1       6    6dx2              2.521825       0.831079
                                                         1.453920      -0.709226
                                                         0.614053      -0.137351
                                                         0.232656       0.068642
                                                         0.074788       0.011745
                          1       6    6dxy              2.521825       1.439472
                                                         1.453920      -1.228415
                                                         0.614053      -0.237899
                                                         0.232656       0.118891
                                                         0.074788       0.020343
                          1       6    6dxz              2.521825       1.439472
                                                         1.453920      -1.228415
                                                         0.614053      -0.237899
                                                         0.232656       0.118891
                                                         0.074788       0.020343
                          1       6    6dy2              2.521825       0.831079
                                                         1.453920      -0.709226
                                                         0.614053      -0.137351
                                                         0.232656       0.068642
                                                         0.074788       0.011745
                          1       6    6dyz              2.521825       1.439472
                                                         1.453920      -1.228415
                                                         0.614053      -0.237899
                                                         0.232656       0.118891
                                                         0.074788       0.020343
                          1       6    6dz2              2.521825       0.831079
                                                         1.453920      -0.709226
                                                         0.614053      -0.137351
                                                         0.232656       0.068642
                                                         0.074788       0.011745

       Atomic covalent radius [Angstrom]:                                  1.300

       Atomic van der Waals radius [Angstrom]:                             1.750

     GTH Potential information for                                   GTH-PBE-q10

       Description:                       Goedecker-Teter-Hutter pseudopotential
                                           Goedecker et al., PRB 54, 1703 (1996)
                                          Hartwigsen et al., PRB 58, 3641 (1998)
                                                      Krack, TCA 114, 145 (2005)

       Gaussian exponent of the core charge distribution:               1.317676
       Electronic configuration (s p d ...):                           1   0   9

       Parameters of the local part of the GTH pseudopotential:

                          rloc        C1          C2          C3          C4
                        0.616000   11.313635

       Parameters of the non-local part of the GTH pseudopotential:

                   l      r(l)      h(i,j,l)

                   0    0.550904    4.733491   -1.784594
                                   -1.784594    2.303901
                   1    0.674138    2.534798   -1.778066
                                   -1.778066    2.103836
                   2    0.457392   -7.264011    2.558665
                                    2.558665   -2.901253


 MOLECULE KIND INFORMATION


 All atoms are their own molecule, skipping detailed information


 TOTAL NUMBERS AND MAXIMUM NUMBERS

  Total number of            - Atomic kinds:                                   1
                             - Atoms:                                        216
                             - Shell sets:                                   216
                             - Shells:                                      1296
                             - Primitive Cartesian functions:               1080
                             - Cartesian basis functions:                   4968
                             - Spherical basis functions:                   4320

  Maximum angular momentum of- Orbital basis functions:                        2
                             - Local part of the GTH pseudopotential:          0
                             - Non-local part of the GTH pseudopotential:      4


 MODULE QUICKSTEP:  ATOMIC COORDINATES IN angstrom

 Atom  Kind  Element       X           Y           Z          Z(eff)       Mass
    1   1 Pt  78       2.353934    0.324470   19.949937      10.0000    195.0840
    2   1 Pt  78       5.163934    0.504470   19.809937      10.0000    195.0840
    3   1 Pt  78       7.953934    0.554470   20.049935      10.0000    195.0840
    4   1 Pt  78      10.713934    0.454470   19.929932      10.0000    195.0840
    5   1 Pt  78      13.463934    0.384470   19.939934      10.0000    195.0840
    6   1 Pt  78      16.353934    0.434470   19.929932      10.0000    195.0840
    7   1 Pt  78       3.743934    2.874470   19.949937      10.0000    195.0840
    8   1 Pt  78       6.653934    2.914470   19.829934      10.0000    195.0840
    9   1 Pt  78       9.403934    2.924470   20.039937      10.0000    195.0840
   10   1 Pt  78      12.153935    2.944470   19.799935      10.0000    195.0840
   11   1 Pt  78      15.043934    2.834470   19.899933      10.0000    195.0840
   12   1 Pt  78       0.923934    2.704470   19.929932      10.0000    195.0840
   13   1 Pt  78       4.983934    5.234470   19.829934      10.0000    195.0840
   14   1 Pt  78       7.793934    5.284470   20.139935      10.0000    195.0840
   15   1 Pt  78      10.703934    5.244470   20.099934      10.0000    195.0840
   16   1 Pt  78      13.593934    5.284470   20.019936      10.0000    195.0840
   17   1 Pt  78      -0.546066    5.184470   20.079934      10.0000    195.0840
   18   1 Pt  78       2.173934    5.214470   19.909936      10.0000    195.0840
   19   1 Pt  78       6.433934    7.764470   19.909936      10.0000    195.0840
   20   1 Pt  78       9.363935    7.644470   19.869935      10.0000    195.0840
   21   1 Pt  78      12.123935    7.624470   20.079934      10.0000    195.0840
   22   1 Pt  78      -1.926066    7.704470   20.069932      10.0000    195.0840
   23   1 Pt  78       0.803934    7.674470   20.129933      10.0000    195.0840
   24   1 Pt  78       3.723934    7.674470   19.919934      10.0000    195.0840
   25   1 Pt  78       7.883934   10.194470   19.959935      10.0000    195.0840
   26   1 Pt  78      10.663934    9.974470   19.709935      10.0000    195.0840
   27   1 Pt  78      -3.296067   10.054470   19.819935      10.0000    195.0840
   28   1 Pt  78      -0.546066   10.154471   20.019936      10.0000    195.0840
   29   1 Pt  78       2.253934   10.124470   20.079934      10.0000    195.0840
   30   1 Pt  78       5.153934   10.164470   19.959935      10.0000    195.0840
   31   1 Pt  78       9.293934   12.644470   19.939934      10.0000    195.0840
   32   1 Pt  78      -4.706066   12.464470   19.839932      10.0000    195.0840
   33   1 Pt  78      -1.946066   12.604470   19.919934      10.0000    195.0840
   34   1 Pt  78       0.873934   12.604470   19.959935      10.0000    195.0840
   35   1 Pt  78       3.683934   12.514470   20.019936      10.0000    195.0840
   36   1 Pt  78       6.473934   12.624470   19.939934      10.0000    195.0840
   37   1 Pt  78       0.843934    1.294470   22.239934      10.0000    195.0840
   38   1 Pt  78       3.673934    1.254470   22.219933      10.0000    195.0840
   39   1 Pt  78       6.453934    1.104470   22.349934      10.0000    195.0840
   40   1 Pt  78       9.263934    1.054470   22.409936      10.0000    195.0840
   41   1 Pt  78      12.013934    1.094470   22.329934      10.0000    195.0840
   42   1 Pt  78      14.783935    1.174470   22.189934      10.0000    195.0840
   43   1 Pt  78       2.333934    3.694470   22.289933      10.0000    195.0840
   44   1 Pt  78       5.093934    3.704470   22.209935      10.0000    195.0840
   45   1 Pt  78       7.833934    3.474470   22.389935      10.0000    195.0840
   46   1 Pt  78      10.593934    3.544470   22.519936      10.0000    195.0840
   47   1 Pt  78      13.393934    3.644470   22.349934      10.0000    195.0840
   48   1 Pt  78      -0.636066    3.654470   22.389935      10.0000    195.0840
   49   1 Pt  78       3.813934    6.034470   22.129933      10.0000    195.0840
   50   1 Pt  78       6.473934    6.084470   22.349934      10.0000    195.0840
   51   1 Pt  78       9.113934    6.074470   22.289933      10.0000    195.0840
   52   1 Pt  78      11.933934    6.124470   22.449937      10.0000    195.0840
   53   1 Pt  78      -1.986066    6.074470   22.419934      10.0000    195.0840
   54   1 Pt  78       0.843934    5.974470   22.349934      10.0000    195.0840
   55   1 Pt  78       4.983934    8.534470   22.329934      10.0000    195.0840
   56   1 Pt  78       7.813934    8.484471   22.299935      10.0000    195.0840
   57   1 Pt  78      10.583934    8.584471   22.179936      10.0000    195.0840
   58   1 Pt  78      -3.456066    8.504470   22.349934      10.0000    195.0840
   59   1 Pt  78      -0.506066    8.464470   22.379937      10.0000    195.0840
   60   1 Pt  78       2.313934    8.434470   22.329934      10.0000    195.0840
   61   1 Pt  78       6.453934   11.004470   22.349934      10.0000    195.0840
   62   1 Pt  78       9.143934   11.014470   22.269932      10.0000    195.0840
   63   1 Pt  78      -4.866067   10.954470   22.169934      10.0000    195.0840
   64   1 Pt  78      -2.046067   10.904470   22.349934      10.0000    195.0840
   65   1 Pt  78       0.903934   10.934470   22.389935      10.0000    195.0840
   66   1 Pt  78       3.703934   11.024470   22.399933      10.0000    195.0840
   67   1 Pt  78       7.793934   13.484471   22.259934      10.0000    195.0840
   68   1 Pt  78      -6.296067   13.324471   22.269932      10.0000    195.0840
   69   1 Pt  78      -3.406067   13.414471   22.299935      10.0000    195.0840
   70   1 Pt  78      -0.626066   13.304470   22.279935      10.0000    195.0840
   71   1 Pt  78       2.243934   13.344471   22.229935      10.0000    195.0840
   72   1 Pt  78       5.173934   13.364471   22.309937      10.0000    195.0840
   73   1 Pt  78      -7.696067   14.204470   24.589936      10.0000    195.0840
   74   1 Pt  78      -4.836066   14.234471   24.499936      10.0000    195.0840
   75   1 Pt  78      -1.976066   14.154471   24.629937      10.0000    195.0840
   76   1 Pt  78       0.753934   14.054470   24.619935      10.0000    195.0840
   77   1 Pt  78       3.603934   14.144471   24.639935      10.0000    195.0840
   78   1 Pt  78       6.393934   14.264471   24.729935      10.0000    195.0840
   79   1 Pt  78       2.163934    2.114470   24.589936      10.0000    195.0840
   80   1 Pt  78       4.983934    2.114470   24.569935      10.0000    195.0840
   81   1 Pt  78       7.813934    2.034470   24.719933      10.0000    195.0840
   82   1 Pt  78      10.613935    1.884470   24.699937      10.0000    195.0840
   83   1 Pt  78      13.433934    2.024470   24.689934      10.0000    195.0840
   84   1 Pt  78      -0.646066    1.984470   24.649933      10.0000    195.0840
   85   1 Pt  78       3.693934    4.544470   24.559937      10.0000    195.0840
   86   1 Pt  78       6.413934    4.444470   24.619935      10.0000    195.0840
   87   1 Pt  78       9.253934    4.464470   24.709935      10.0000    195.0840
   88   1 Pt  78      11.963934    4.464470   24.709935      10.0000    195.0840
   89   1 Pt  78      -2.006066    4.454470   24.659936      10.0000    195.0840
   90   1 Pt  78       0.813934    4.434470   24.599934      10.0000    195.0840
   91   1 Pt  78       5.073934    6.974470   24.609933      10.0000    195.0840
   92   1 Pt  78       7.743934    6.894470   24.639935      10.0000    195.0840
   93   1 Pt  78      10.543934    7.044470   24.599934      10.0000    195.0840
   94   1 Pt  78      -3.536066    6.884470   24.689934      10.0000    195.0840
   95   1 Pt  78      -0.586066    6.854470   24.729935      10.0000    195.0840
   96   1 Pt  78       2.233934    6.864470   24.539933      10.0000    195.0840
   97   1 Pt  78       6.393934    9.414471   24.569935      10.0000    195.0840
   98   1 Pt  78       9.183934    9.334471   24.519936      10.0000    195.0840
   99   1 Pt  78      -4.866067    9.394470   24.489934      10.0000    195.0840
  100   1 Pt  78      -1.986066    9.204470   24.539933      10.0000    195.0840
  101   1 Pt  78       0.883934    9.254470   24.679932      10.0000    195.0840
  102   1 Pt  78       3.603934    9.304470   24.679932      10.0000    195.0840
  103   1 Pt  78       7.753934   11.864471   24.649933      10.0000    195.0840
  104   1 Pt  78      -6.296067   11.854470   24.489934      10.0000    195.0840
  105   1 Pt  78      -3.446066   11.774470   24.609933      10.0000    195.0840
  106   1 Pt  78      -0.656066   11.704470   24.609933      10.0000    195.0840
  107   1 Pt  78       2.133934   11.784471   24.749932      10.0000    195.0840
  108   1 Pt  78       4.863934   11.834471   24.699937      10.0000    195.0840
  109   1 Pt  78       2.123934    0.434470   26.817933      10.0000    195.0840
  110   1 Pt  78       5.003934    0.414470   26.797933      10.0000    195.0840
  111   1 Pt  78       7.803934    0.404470   26.867933      10.0000    195.0840
  112   1 Pt  78      10.433934    0.354470   26.987933      10.0000    195.0840
  113   1 Pt  78      13.293935    0.364470   27.047933      10.0000    195.0840
  114   1 Pt  78      16.153935    0.394470   26.927933      10.0000    195.0840
  115   1 Pt  78       3.643934    2.804470   26.927933      10.0000    195.0840
  116   1 Pt  78       6.363934    2.894470   26.977933      10.0000    195.0840
  117   1 Pt  78       9.113934    2.954470   26.947933      10.0000    195.0840
  118   1 Pt  78      11.893934    2.734470   26.987933      10.0000    195.0840
  119   1 Pt  78      14.753935    2.774470   26.987933      10.0000    195.0840
  120   1 Pt  78       0.733934    2.764470   27.017933      10.0000    195.0840
  121   1 Pt  78       4.933934    5.334470   26.947933      10.0000    195.0840
  122   1 Pt  78       7.693934    5.354470   26.957933      10.0000    195.0840
  123   1 Pt  78      10.533935    5.394470   27.007933      10.0000    195.0840
  124   1 Pt  78      13.263934    5.204470   26.947933      10.0000    195.0840
  125   1 Pt  78      -0.626066    5.164470   26.967933      10.0000    195.0840
  126   1 Pt  78       2.213934    5.134470   26.877933      10.0000    195.0840
  127   1 Pt  78       6.413934    7.794470   26.947933      10.0000    195.0840
  128   1 Pt  78       9.163934    7.774470   26.927933      10.0000    195.0840
  129   1 Pt  78      11.993935    7.704470   26.927933      10.0000    195.0840
  130   1 Pt  78      -2.096066    7.684470   26.977933      10.0000    195.0840
  131   1 Pt  78       0.753934    7.604470   26.937933      10.0000    195.0840
  132   1 Pt  78       3.563934    7.654470   26.977933      10.0000    195.0840
  133   1 Pt  78       7.693934   10.224470   26.897933      10.0000    195.0840
  134   1 Pt  78      10.553934   10.194470   26.827933      10.0000    195.0840
  135   1 Pt  78      -3.426066   10.184471   26.857933      10.0000    195.0840
  136   1 Pt  78      -0.676066   10.074471   27.047933      10.0000    195.0840
  137   1 Pt  78       2.113934   10.144470   27.027933      10.0000    195.0840
  138   1 Pt  78       4.913934   10.134471   26.917933      10.0000    195.0840
  139   1 Pt  78       9.163934   12.574471   26.957933      10.0000    195.0840
  140   1 Pt  78      -4.936066   12.534471   26.727933      10.0000    195.0840
  141   1 Pt  78      -2.126066   12.504471   26.947933      10.0000    195.0840
  142   1 Pt  78       0.633934   12.534471   26.947933      10.0000    195.0840
  143   1 Pt  78       3.443934   12.574471   27.087933      10.0000    195.0840
  144   1 Pt  78       6.303934   12.624470   26.957933      10.0000    195.0840
  145   1 Pt  78       0.653934    1.214470   29.337933      10.0000    195.0840
  146   1 Pt  78       3.433934    1.094470   29.157933      10.0000    195.0840
  147   1 Pt  78       6.223934    1.254470   29.077933      10.0000    195.0840
  148   1 Pt  78       9.013934    1.314470   29.237933      10.0000    195.0840
  149   1 Pt  78      11.923935    1.314470   29.367933      10.0000    195.0840
  150   1 Pt  78      14.713934    1.254470   29.247933      10.0000    195.0840
  151   1 Pt  78       2.033934    3.534470   29.327933      10.0000    195.0840
  152   1 Pt  78       4.853934    3.634470   29.277933      10.0000    195.0840
  153   1 Pt  78       7.593934    3.744470   29.407933      10.0000    195.0840
  154   1 Pt  78      10.443935    3.674470   29.207933      10.0000    195.0840
  155   1 Pt  78      13.303933    3.724470   29.257933      10.0000    195.0840
  156   1 Pt  78      -0.806066    3.684470   29.297933      10.0000    195.0840
  157   1 Pt  78       3.493934    5.914470   29.237933      10.0000    195.0840
  158   1 Pt  78       6.273935    6.144470   29.217933      10.0000    195.0840
  159   1 Pt  78       9.023935    6.134470   29.337933      10.0000    195.0840
  160   1 Pt  78      11.843934    6.154470   29.257933      10.0000    195.0840
  161   1 Pt  78      -2.006066    6.094470   29.157933      10.0000    195.0840
  162   1 Pt  78       0.733934    5.934470   29.227933      10.0000    195.0840
  163   1 Pt  78       4.793934    8.484471   29.307933      10.0000    195.0840
  164   1 Pt  78       7.653934    8.524470   29.347933      10.0000    195.0840
  165   1 Pt  78      10.523935    8.484471   29.167933      10.0000    195.0840
  166   1 Pt  78      -3.506067    8.534470   29.247933      10.0000    195.0840
  167   1 Pt  78      -0.676066    8.514470   29.297933      10.0000    195.0840
  168   1 Pt  78       2.103934    8.464470   29.277933      10.0000    195.0840
  169   1 Pt  78       6.343934   10.984471   29.337933      10.0000    195.0840
  170   1 Pt  78       9.103934   10.924471   29.177933      10.0000    195.0840
  171   1 Pt  78      -4.996067   10.904470   29.147933      10.0000    195.0840
  172   1 Pt  78      -2.166066   10.974470   29.207933      10.0000    195.0840
  173   1 Pt  78       0.553934   11.004470   29.317933      10.0000    195.0840
  174   1 Pt  78       3.473934   10.944471   29.207933      10.0000    195.0840
  175   1 Pt  78       7.673934   13.364471   29.257933      10.0000    195.0840
  176   1 Pt  78      -6.426067   13.434470   29.107933      10.0000    195.0840
  177   1 Pt  78      -3.576066   13.344471   29.037933      10.0000    195.0840
  178   1 Pt  78      -0.696066   13.394470   29.257933      10.0000    195.0840
  179   1 Pt  78       2.043934   13.344471   29.317933      10.0000    195.0840
  180   1 Pt  78       4.833934   13.364471   29.377933      10.0000    195.0840
  181   1 Pt  78      -7.926066   14.204470   31.567933      10.0000    195.0840
  182   1 Pt  78      -5.216067   14.184470   31.527933      10.0000    195.0840
  183   1 Pt  78      -2.306066   14.124470   31.447933      10.0000    195.0840
  184   1 Pt  78       0.623934   14.204470   31.547933      10.0000    195.0840
  185   1 Pt  78       3.433934   14.184470   31.627933      10.0000    195.0840
  186   1 Pt  78       6.253934   14.284471   31.677933      10.0000    195.0840
  187   1 Pt  78       1.993934    1.984470   31.767933      10.0000    195.0840
  188   1 Pt  78       4.803934    1.834470   31.477933      10.0000    195.0840
  189   1 Pt  78       7.553934    1.884470   31.627933      10.0000    195.0840
  190   1 Pt  78      10.293934    2.064470   31.607933      10.0000    195.0840
  191   1 Pt  78      13.033935    2.134470   31.737933      10.0000    195.0840
  192   1 Pt  78      -0.986066    2.034470   31.607933      10.0000    195.0840
  193   1 Pt  78       3.453934    4.344470   31.527933      10.0000    195.0840
  194   1 Pt  78       6.333934    4.254470   31.747933      10.0000    195.0840
  195   1 Pt  78       9.103934    4.504470   31.717933      10.0000    195.0840
  196   1 Pt  78      11.813934    4.554470   31.747933      10.0000    195.0840
  197   1 Pt  78      -2.266066    4.534470   31.557933      10.0000    195.0840
  198   1 Pt  78       0.613934    4.344470   31.557933      10.0000    195.0840
  199   1 Pt  78       4.833934    6.724470   31.697933      10.0000    195.0840
  200   1 Pt  78       7.643934    6.864470   31.567933      10.0000    195.0840
  201   1 Pt  78      10.453934    6.954470   31.667933      10.0000    195.0840
  202   1 Pt  78      -3.626067    6.944470   31.607933      10.0000    195.0840
  203   1 Pt  78      -0.816066    6.824470   31.527933      10.0000    195.0840
  204   1 Pt  78       1.963934    6.854470   31.667933      10.0000    195.0840
  205   1 Pt  78       6.123934    9.284471   31.497933      10.0000    195.0840
  206   1 Pt  78       8.953935    9.434470   31.607933      10.0000    195.0840
  207   1 Pt  78      -5.126067    9.344470   31.447933      10.0000    195.0840
  208   1 Pt  78      -2.246066    9.334471   31.637933      10.0000    195.0840
  209   1 Pt  78       0.503934    9.254470   31.657933      10.0000    195.0840
  210   1 Pt  78       3.263934    9.244471   31.657933      10.0000    195.0840
  211   1 Pt  78       7.583934   11.794471   31.707933      10.0000    195.0840
  212   1 Pt  78      -6.536066   11.834471   31.427933      10.0000    195.0840
  213   1 Pt  78      -3.776067   11.804470   31.437933      10.0000    195.0840
  214   1 Pt  78      -0.736066   11.894470   31.647933      10.0000    195.0840
  215   1 Pt  78       2.063934   11.694470   31.567933      10.0000    195.0840
  216   1 Pt  78       4.743934   11.764471   31.627933      10.0000    195.0840




 SCF PARAMETERS         Density guess:                                   RESTART
                        --------------------------------------------------------
                        max_scf:                                             500
                        max_scf_history:                                       0
                        max_diis:                                              4
                        --------------------------------------------------------
                        eps_scf:                                        1.00E-06
                        eps_scf_history:                                0.00E+00
                        eps_diis:                                       1.00E-01
                        eps_eigval:                                     1.00E-05
                        --------------------------------------------------------
                        level_shift [a.u.]:                             0.000000
                        added MOs                                       500    0
                        --------------------------------------------------------
                        Mixing method:                            BROYDEN_MIXING
                                                charge density mixing in g-space
                        --------------------------------------------------------
                        Smear method:                                FERMI_DIRAC
                        Electronic temperature [K]:                        300.0
                        Electronic temperature [a.u.]:                  9.50E-04
                        Accuracy threshold:                             1.00E-10
                        --------------------------------------------------------
                        No outer SCF

 PW_GRID| Information for grid number                                          1
 PW_GRID| Grid distributed over                                    32 processors
 PW_GRID| Real space group dimensions                                    32    1
 PW_GRID| the grid is blocked:                                                NO
 PW_GRID| Cutoff [a.u.]                                                    200.0
 PW_GRID| spherical cutoff:                                                   NO
 PW_GRID|   Bounds   1           -105     104                Points:         210
 PW_GRID|   Bounds   2           -105     104                Points:         210
 PW_GRID|   Bounds   3           -315     314                Points:         630
 PW_GRID| Volume element (a.u.^3)  0.3081E-02     Volume (a.u.^3)     85609.9578
 PW_GRID| Grid span                                                    FULLSPACE
 PW_GRID|   Distribution                         Average         Max         Min
 PW_GRID|   G-Vectors                           868218.8      868350      868140
 PW_GRID|   G-Rays                                4134.4        4135        4134
 PW_GRID|   Real Space Points                   868218.8      926100      793800

 PW_GRID| Information for grid number                                          2
 PW_GRID| Number of the reference grid                                         1
 PW_GRID| Grid distributed over                                    32 processors
 PW_GRID| Real space group dimensions                                    32    1
 PW_GRID| the grid is blocked:                                                NO
 PW_GRID| Cutoff [a.u.]                                                     66.7
 PW_GRID| spherical cutoff:                                                   NO
 PW_GRID|   Bounds   1            -60      59                Points:         120
 PW_GRID|   Bounds   2            -60      59                Points:         120
 PW_GRID|   Bounds   3           -180     179                Points:         360
 PW_GRID| Volume element (a.u.^3)  0.1651E-01     Volume (a.u.^3)     85609.9578
 PW_GRID| Grid span                                                    FULLSPACE
 PW_GRID|   Distribution                         Average         Max         Min
 PW_GRID|   G-Vectors                           162000.0      162840      161280
 PW_GRID|   G-Rays                                1350.0        1357        1344
 PW_GRID|   Real Space Points                   162000.0      172800      129600

 PW_GRID| Information for grid number                                          3
 PW_GRID| Number of the reference grid                                         1
 PW_GRID| Grid distributed over                                    32 processors
 PW_GRID| Real space group dimensions                                    32    1
 PW_GRID| the grid is blocked:                                                NO
 PW_GRID| Cutoff [a.u.]                                                     22.2
 PW_GRID| spherical cutoff:                                                   NO
 PW_GRID|   Bounds   1            -35      34                Points:          70
 PW_GRID|   Bounds   2            -35      34                Points:          70
 PW_GRID|   Bounds   3           -105     104                Points:         210
 PW_GRID| Volume element (a.u.^3)  0.8320E-01     Volume (a.u.^3)     85609.9578
 PW_GRID| Grid span                                                    FULLSPACE
 PW_GRID|   Distribution                         Average         Max         Min
 PW_GRID|   G-Vectors                            32156.2       32340       31990
 PW_GRID|   G-Rays                                 459.4         462         457
 PW_GRID|   Real Space Points                    32156.2       44100       29400

 PW_GRID| Information for grid number                                          4
 PW_GRID| Number of the reference grid                                         1
 PW_GRID| Grid distributed over                                    32 processors
 PW_GRID| Real space group dimensions                                    32    1
 PW_GRID| the grid is blocked:                                                NO
 PW_GRID| Cutoff [a.u.]                                                      7.4
 PW_GRID| spherical cutoff:                                                   NO
 PW_GRID|   Bounds   1            -20      19                Points:          40
 PW_GRID|   Bounds   2            -20      19                Points:          40
 PW_GRID|   Bounds   3            -60      59                Points:         120
 PW_GRID| Volume element (a.u.^3)  0.4459         Volume (a.u.^3)     85609.9578
 PW_GRID| Grid span                                                    FULLSPACE
 PW_GRID|   Distribution                         Average         Max         Min
 PW_GRID|   G-Vectors                             6000.0        6120        5920
 PW_GRID|   G-Rays                                 150.0         153         148
 PW_GRID|   Real Space Points                     6000.0        9600        4800

 POISSON| Solver                                          IMPLICIT (GENERALIZED)
 POISSON| Boundary Condition                                PERIODIC & DIRICHLET
 POISSON| Maximum number of iterations                                        30
 POISSON| Convergence threshold                                         1.00E-08
 POISSON| Dielectric Constant                                              80.00
 POISSON| Relaxation parameter                                          1.00E+00

 RS_GRID| Information for grid number                                          1
 RS_GRID|   Bounds   1           -105     104                Points:         210
 RS_GRID|   Bounds   2           -105     104                Points:         210
 RS_GRID|   Bounds   3           -315     314                Points:         630
 RS_GRID| Real space distribution over                                 32 groups
 RS_GRID| Real space distribution along direction                              3
 RS_GRID| Border size                                                         54
 RS_GRID|   Distribution                         Average         Max         Min
 RS_GRID|   Planes                                 127.7         128         127

 RS_GRID| Information for grid number                                          2
 RS_GRID|   Bounds   1            -60      59                Points:         120
 RS_GRID|   Bounds   2            -60      59                Points:         120
 RS_GRID|   Bounds   3           -180     179                Points:         360
 RS_GRID| Real space distribution over                                 32 groups
 RS_GRID| Real space distribution along direction                              3
 RS_GRID| Border size                                                         36
 RS_GRID|   Distribution                         Average         Max         Min
 RS_GRID|   Planes                                  83.2          84          83

 RS_GRID| Information for grid number                                          3
 RS_GRID|   Bounds   1            -35      34                Points:          70
 RS_GRID|   Bounds   2            -35      34                Points:          70
 RS_GRID|   Bounds   3           -105     104                Points:         210
 RS_GRID| Real space fully replicated
 RS_GRID| Group size                                                           1

 RS_GRID| Information for grid number                                          4
 RS_GRID|   Bounds   1            -20      19                Points:          40
 RS_GRID|   Bounds   2            -20      19                Points:          40
 RS_GRID|   Bounds   3            -60      59                Points:         120
 RS_GRID| Real space fully replicated
 RS_GRID| Group size                                                           1

 Number of electrons:                                                       2160
 Number of occupied orbitals:                                               1080
 Number of molecular orbitals:                                              1580

 Number of orbital functions:                                               4320
 Number of independent orbital functions:                                   4320

 Extrapolation method: initial_guess


 SCF WAVEFUNCTION OPTIMIZATION

  Step     Update method      Time    Convergence         Total energy    Change
  ------------------------------------------------------------------------------

  POISSON| IMPLICIT (GENERALIZED) SOLVER ---------------------------------------
  POISSON| Preparing Dirichlet regions ...
  POISSON| Dirichlet region    1
  POISSON|     type : axis-aligned planar
  POISSON|     applied potential :   0.0000E+00  [Eh/e]
  POISSON| Dirichlet region    2
  POISSON|     type : axis-aligned planar
  POISSON|     applied potential :  -0.3675E-01  [Eh/e]
  POISSON| ... Done. 
  ------------------------------------------------------------------------------

  POISSON|   iter        pres error      nabs error        E_hartree    delta E
  POISSON|      1        0.7327E-03      0.3272E-01    1992.4643741090  0.20E+04
  POISSON|      2        0.5533E-15      0.7327E-03    1992.4678593187  0.35E-02
  POISSON| Poisson solver converged in 2 iterations.
     1 NoMix/Diag. 0.30E+00   11.1     0.18747443     -5670.8089308694 -5.67E+03
  POISSON|   iter        pres error      nabs error        E_hartree    delta E
  POISSON|      1        0.7726E-03      0.3250E-01    1992.3390757154 -0.13E+00
  POISSON|      2        0.7713E-15      0.7726E-03    1992.3427509219  0.37E-02
  POISSON| Poisson solver converged in 2 iterations.
     2 Broy./Diag. 0.30E+00   13.2     0.23593343     -5670.7462904472  6.26E-02
  POISSON|   iter        pres error      nabs error        E_hartree    delta E
  POISSON|      1        0.8701E-04      0.4413E-03    1992.5292677079  0.19E+00
  POISSON|      2        0.5611E-16      0.8701E-04    1992.5288538289 -0.41E-03
  POISSON| Poisson solver converged in 2 iterations.
     3 Broy./Diag. 0.30E+00   13.3     0.16074757     -5675.9134724814 -5.17E+00
  POISSON|   iter        pres error      nabs error        E_hartree    delta E
  POISSON|      1        0.8801E-04      0.3558E-03    1992.5735304477  0.45E-01
  POISSON|      2        0.2918E-16      0.8801E-04    1992.5739491165  0.42E-03
  POISSON| Poisson solver converged in 2 iterations.
     4 Broy./Diag. 0.30E+00   13.5     0.12582410     -5672.8756955976  3.04E+00
  POISSON|   iter        pres error      nabs error        E_hartree    delta E
  POISSON|      1        0.4315E-04      0.1713E-03    1992.6849425238  0.11E+00
  POISSON|      2        0.1598E-16      0.4315E-04    1992.6847372825 -0.21E-03
  POISSON| Poisson solver converged in 2 iterations.
     5 Broy./Diag. 0.30E+00   13.3     0.07834680     -5672.5940379216  2.82E-01
  POISSON|   iter        pres error      nabs error        E_hartree    delta E
  POISSON|      1        0.4509E-05      0.4401E-04    1992.8005358729  0.12E+00
  POISSON|      2        0.1832E-17      0.4509E-05    1992.8005573224  0.21E-04
  POISSON| Poisson solver converged in 2 iterations.
     6 Broy./Diag. 0.30E+00   13.4     0.04497144     -5672.8156357426 -2.22E-01
  POISSON|   iter        pres error      nabs error        E_hartree    delta E
  POISSON|      1        0.3148E-05      0.3555E-04    1992.9155386490  0.11E+00
  POISSON|      2        0.7538E-17      0.3148E-05    1992.9155536218  0.15E-04
  POISSON| Poisson solver converged in 2 iterations.
     7 Broy./Diag. 0.30E+00   13.4     0.02809415     -5672.3409316138  4.75E-01
  POISSON|   iter        pres error      nabs error        E_hartree    delta E
  POISSON|      1        0.6138E-06      0.3675E-04    1992.9909735071  0.75E-01
  POISSON|      2        0.1184E-16      0.6138E-06    1992.9909764269  0.29E-05
  POISSON| Poisson solver converged in 2 iterations.
     8 Broy./Diag. 0.30E+00   13.5     0.02148257     -5672.0662845306  2.75E-01
  POISSON|   iter        pres error      nabs error        E_hartree    delta E
  POISSON|      1        0.8288E-06      0.1086E-04    1993.0222717365  0.31E-01
  POISSON|      2        0.3780E-17      0.8288E-06    1993.0222677942 -0.39E-05
  POISSON| Poisson solver converged in 2 iterations.
     9 Broy./Diag. 0.30E+00   13.5     0.01113856     -5672.3823386884 -3.16E-01
  POISSON|   iter        pres error      nabs error        E_hartree    delta E
  POISSON|      1        0.5627E-06      0.5552E-05    1993.0371488100  0.15E-01
  POISSON|      2        0.3375E-17      0.5627E-06    1993.0371461335 -0.27E-05
  POISSON| Poisson solver converged in 2 iterations.
    10 Broy./Diag. 0.30E+00   13.5     0.00462883     -5672.2751276488  1.07E-01
  POISSON|   iter        pres error      nabs error        E_hartree    delta E
  POISSON|      1        0.4909E-07      0.5301E-05    1993.0462013170  0.91E-02
  POISSON|      2        0.1731E-17      0.4909E-07    1993.0462015505  0.23E-06
  POISSON| Poisson solver converged in 2 iterations.
    11 Broy./Diag. 0.30E+00   13.6     0.00339773     -5672.2360642895  3.91E-02
  POISSON|   iter        pres error      nabs error        E_hartree    delta E
  POISSON|      1        0.2509E-06      0.5299E-05    1993.0542195561  0.80E-02
  POISSON|      2        0.6035E-17      0.2509E-06    1993.0542207496  0.12E-05
  POISSON| Poisson solver converged in 2 iterations.
    12 Broy./Diag. 0.30E+00   13.6     0.00269484     -5672.2466126930 -1.05E-02
  POISSON|   iter        pres error      nabs error        E_hartree    delta E
  POISSON|      1        0.4748E-07      0.3699E-05    1993.0621779403  0.80E-02
  POISSON|      2        0.1507E-17      0.4748E-07    1993.0621781662  0.23E-06
  POISSON| Poisson solver converged in 2 iterations.
    13 Broy./Diag. 0.30E+00   13.6     0.00168872     -5672.2598272378 -1.32E-02
  POISSON|   iter        pres error      nabs error        E_hartree    delta E
  POISSON|      1        0.1328E-06      0.1625E-05    1993.0633361103  0.12E-02
  POISSON|      2        0.3741E-18      0.1328E-06    1993.0633354784 -0.63E-06
  POISSON| Poisson solver converged in 2 iterations.
    14 Broy./Diag. 0.30E+00   13.6     0.00092632     -5672.2482673059  1.16E-02
  POISSON|   iter        pres error      nabs error        E_hartree    delta E
  POISSON|      1        0.2610E-06      0.2236E-05    1993.0644568993  0.11E-02
  POISSON|      2        0.1046E-17      0.2610E-06    1993.0644581409  0.12E-05
  POISSON| Poisson solver converged in 2 iterations.
    15 Broy./Diag. 0.30E+00   13.6     0.00063436     -5672.2501326071 -1.87E-03
  POISSON|   iter        pres error      nabs error        E_hartree    delta E
  POISSON|      1        0.3592E-06      0.2290E-05    1993.0654500179  0.99E-03
  POISSON|      2        0.1613E-17      0.3592E-06    1993.0654483094 -0.17E-05
  POISSON| Poisson solver converged in 2 iterations.
    16 Broy./Diag. 0.30E+00   13.5     0.00094824     -5672.2542321490 -4.10E-03
  POISSON|   iter        pres error      nabs error        E_hartree    delta E
  POISSON|      1        0.4263E-06      0.2315E-05    1993.0657714307  0.32E-03
  POISSON|      2        0.4813E-18      0.4263E-06    1993.0657734586  0.20E-05
  POISSON| Poisson solver converged in 2 iterations.
    17 Broy./Diag. 0.30E+00   13.7     0.00084035     -5672.2603652975 -6.13E-03
  POISSON|   iter        pres error      nabs error        E_hartree    delta E
  POISSON|      1        0.1189E-06      0.1382E-05    1993.0665294047  0.76E-03
  POISSON|      2        0.4357E-17      0.1189E-06    1993.0665288390 -0.57E-06
  POISSON| Poisson solver converged in 2 iterations.
    18 Broy./Diag. 0.30E+00   13.6     0.00047910     -5672.2584716153  1.89E-03
  POISSON|   iter        pres error      nabs error        E_hartree    delta E
  POISSON|      1        0.4726E-07      0.1129E-05    1993.0669241243  0.40E-03
  POISSON|      2        0.2422E-17      0.4726E-07    1993.0669243491  0.22E-06
  POISSON| Poisson solver converged in 2 iterations.
    19 Broy./Diag. 0.30E+00   13.6     0.00020362     -5672.2592056028 -7.34E-04
  POISSON|   iter        pres error      nabs error        E_hartree    delta E
  POISSON|      1        0.6452E-08      0.8449E-06    1993.0674517099  0.53E-03
  POISSON| Poisson solver converged in 1 iteration. 
    20 Broy./Diag. 0.30E+00   12.2     0.00015501     -5672.2632797640 -4.07E-03
  POISSON|   iter        pres error      nabs error        E_hartree    delta E
  POISSON|      1        0.6531E-08      0.1175E-05    1993.0682661403  0.81E-03
  POISSON| Poisson solver converged in 1 iteration. 
    21 Broy./Diag. 0.30E+00   12.1     0.00016728     -5672.2630806764  1.99E-04
  POISSON|   iter        pres error      nabs error        E_hartree    delta E
  POISSON|      1        0.1327E-07      0.1303E-05    1993.0689848562  0.72E-03
  POISSON|      2        0.6456E-17      0.1327E-07    1993.0689849194  0.63E-07
  POISSON| Poisson solver converged in 2 iterations.
    22 Broy./Diag. 0.30E+00   13.5     0.00015753     -5672.2623103615  7.70E-04
  POISSON|   iter        pres error      nabs error        E_hartree    delta E
  POISSON|      1        0.1571E-07      0.1208E-05    1993.0696604466  0.68E-03
  POISSON|      2        0.5788E-17      0.1571E-07    1993.0696605213  0.75E-07
  POISSON| Poisson solver converged in 2 iterations.
    23 Broy./Diag. 0.30E+00   13.5     0.00010940     -5672.2639221738 -1.61E-03
  POISSON|   iter        pres error      nabs error        E_hartree    delta E
  POISSON|      1        0.1500E-07      0.9346E-06    1993.0702575463  0.60E-03
  POISSON|      2        0.5393E-17      0.1500E-07    1993.0702576177  0.71E-07
  POISSON| Poisson solver converged in 2 iterations.
    24 Broy./Diag. 0.30E+00   13.5     0.00009431     -5672.2658801713 -1.96E-03
  POISSON|   iter        pres error      nabs error        E_hartree    delta E
  POISSON|      1        0.1922E-07      0.6747E-06    1993.0706212482  0.36E-03
  POISSON|      2        0.2576E-17      0.1922E-07    1993.0706211567 -0.91E-07
  POISSON| Poisson solver converged in 2 iterations.
    25 Broy./Diag. 0.30E+00   13.6     0.00008048     -5672.2654351813  4.45E-04
  POISSON|   iter        pres error      nabs error        E_hartree    delta E
  POISSON|      1        0.6069E-07      0.6179E-06    1993.0708758352  0.25E-03
  POISSON|      2        0.6787E-17      0.6069E-07    1993.0708761238  0.29E-06
  POISSON| Poisson solver converged in 2 iterations.
    26 Broy./Diag. 0.30E+00   13.5     0.00012777     -5672.2655693213 -1.34E-04
  POISSON|   iter        pres error      nabs error        E_hartree    delta E
  POISSON|      1        0.4803E-07      0.6209E-06    1993.0710917468  0.22E-03
  POISSON|      2        0.1196E-17      0.4803E-07    1993.0710915183 -0.23E-06
  POISSON| Poisson solver converged in 2 iterations.
    27 Broy./Diag. 0.30E+00   13.5     0.00011466     -5672.2658105946 -2.41E-04
  POISSON|   iter        pres error      nabs error        E_hartree    delta E
  POISSON|      1        0.2811E-07      0.6301E-06    1993.0713005547  0.21E-03
  POISSON|      2        0.2857E-17      0.2811E-07    1993.0713006884  0.13E-06
  POISSON| Poisson solver converged in 2 iterations.
    28 Broy./Diag. 0.30E+00   13.6     0.00007025     -5672.2668578915 -1.05E-03
  POISSON|   iter        pres error      nabs error        E_hartree    delta E
  POISSON|      1        0.7859E-08      0.3784E-06    1993.0714358911  0.14E-03
  POISSON| Poisson solver converged in 1 iteration. 
    29 Broy./Diag. 0.30E+00   12.1     0.00005398     -5672.2670737645 -2.16E-04
  POISSON|   iter        pres error      nabs error        E_hartree    delta E
  POISSON|      1        0.5227E-08      0.5372E-06    1993.0714964176  0.61E-04
  POISSON| Poisson solver converged in 1 iteration. 
    30 Broy./Diag. 0.30E+00   12.1     0.00004060     -5672.2667469235  3.27E-04
  POISSON|   iter        pres error      nabs error        E_hartree    delta E
  POISSON|      1        0.3630E-08      0.5103E-06    1993.0715558951  0.59E-04
  POISSON| Poisson solver converged in 1 iteration. 
    31 Broy./Diag. 0.30E+00   12.1     0.00004081     -5672.2675534166 -8.06E-04
  POISSON|   iter        pres error      nabs error        E_hartree    delta E
  POISSON|      1        0.2843E-10      0.3956E-06    1993.0716277283  0.72E-04
  POISSON| Poisson solver converged in 1 iteration. 
    32 Broy./Diag. 0.30E+00   12.1     0.00004361     -5672.2681933703 -6.40E-04
  POISSON|   iter        pres error      nabs error        E_hartree    delta E
  POISSON|      1        0.1723E-08      0.2068E-06    1993.0716322982  0.46E-05
  POISSON| Poisson solver converged in 1 iteration. 
    33 Broy./Diag. 0.30E+00   12.1     0.00003257     -5672.2681373004  5.61E-05
  POISSON|   iter        pres error      nabs error        E_hartree    delta E
  POISSON|      1        0.6305E-10      0.3016E-06    1993.0716775213  0.45E-04
  POISSON| Poisson solver converged in 1 iteration. 
    34 Broy./Diag. 0.30E+00   12.2     0.00002220     -5672.2679548141  1.82E-04
  POISSON|   iter        pres error      nabs error        E_hartree    delta E
  POISSON|      1        0.5896E-08      0.2227E-06    1993.0717248273  0.47E-04
  POISSON| Poisson solver converged in 1 iteration. 
    35 Broy./Diag. 0.30E+00   12.2     0.00002227     -5672.2683767217 -4.22E-04
  POISSON|   iter        pres error      nabs error        E_hartree    delta E
  POISSON|      1        0.1579E-07      0.1272E-06    1993.0717441160  0.19E-04
  POISSON|      2        0.1243E-17      0.1579E-07    1993.0717440409 -0.75E-07
  POISSON| Poisson solver converged in 2 iterations.
    36 Broy./Diag. 0.30E+00   13.7     0.00003512     -5672.2684078742 -3.12E-05
  POISSON|   iter        pres error      nabs error        E_hartree    delta E
  POISSON|      1        0.1313E-07      0.1696E-06    1993.0718009341  0.57E-04
  POISSON|      2        0.2039E-17      0.1313E-07    1993.0718009965  0.62E-07
  POISSON| Poisson solver converged in 2 iterations.
    37 Broy./Diag. 0.30E+00   13.6     0.00002998     -5672.2683352426  7.26E-05
  POISSON|   iter        pres error      nabs error        E_hartree    delta E
  POISSON|      1        0.7634E-08      0.1508E-06    1993.0718452711  0.44E-04
  POISSON| Poisson solver converged in 1 iteration. 
    38 Broy./Diag. 0.30E+00   12.1     0.00002237     -5672.2681474397  1.88E-04
  POISSON|   iter        pres error      nabs error        E_hartree    delta E
  POISSON|      1        0.3843E-08      0.1276E-06    1993.0718833489  0.38E-04
  POISSON| Poisson solver converged in 1 iteration. 
    39 Broy./Diag. 0.30E+00   12.2     0.00001818     -5672.2682662648 -1.19E-04
  POISSON|   iter        pres error      nabs error        E_hartree    delta E
  POISSON|      1        0.1888E-08      0.1282E-06    1993.0719402173  0.57E-04
  POISSON| Poisson solver converged in 1 iteration. 
    40 Broy./Diag. 0.30E+00   12.2     0.00001243     -5672.2683800588 -1.14E-04
  POISSON|   iter        pres error      nabs error        E_hartree    delta E
  POISSON|      1        0.7702E-09      0.1509E-06    1993.0719886839  0.48E-04
  POISSON| Poisson solver converged in 1 iteration. 
    41 Broy./Diag. 0.30E+00   12.2     0.00001009     -5672.2682069030  1.73E-04
  POISSON|   iter        pres error      nabs error        E_hartree    delta E
  POISSON|      1        0.6788E-10      0.1308E-06    1993.0720209631  0.32E-04
  POISSON| Poisson solver converged in 1 iteration. 
    42 Broy./Diag. 0.30E+00   12.1     0.00001165     -5672.2682151610 -8.26E-06
  POISSON|   iter        pres error      nabs error        E_hartree    delta E
  POISSON|      1        0.1932E-09      0.1266E-06    1993.0720481974  0.27E-04
  POISSON| Poisson solver converged in 1 iteration. 
    43 Broy./Diag. 0.30E+00   12.1     0.00001035     -5672.2683416876 -1.27E-04
  POISSON|   iter        pres error      nabs error        E_hartree    delta E
  POISSON|      1        0.1565E-09      0.1043E-06    1993.0720700872  0.22E-04
  POISSON| Poisson solver converged in 1 iteration. 
    44 Broy./Diag. 0.30E+00   12.1     0.00000952     -5672.2684368502 -9.52E-05
  POISSON|   iter        pres error      nabs error        E_hartree    delta E
  POISSON|      1        0.2105E-08      0.1139E-06    1993.0720806064  0.11E-04
  POISSON| Poisson solver converged in 1 iteration. 
    45 Broy./Diag. 0.30E+00   12.1     0.00000736     -5672.2683715187  6.53E-05
  POISSON|   iter        pres error      nabs error        E_hartree    delta E
  POISSON|      1        0.4919E-08      0.7152E-07    1993.0720871753  0.66E-05
  POISSON| Poisson solver converged in 1 iteration. 
    46 Broy./Diag. 0.30E+00   12.2     0.00001257     -5672.2684724282 -1.01E-04
  POISSON|   iter        pres error      nabs error        E_hartree    delta E
  POISSON|      1        0.4619E-08      0.8276E-07    1993.0720938471  0.67E-05
  POISSON| Poisson solver converged in 1 iteration. 
    47 Broy./Diag. 0.30E+00   12.2     0.00001187     -5672.2685180317 -4.56E-05
  POISSON|   iter        pres error      nabs error        E_hartree    delta E
  POISSON|      1        0.2478E-08      0.7520E-07    1993.0720994114  0.56E-05
  POISSON| Poisson solver converged in 1 iteration. 
    48 Broy./Diag. 0.30E+00   12.2     0.00000898     -5672.2685919152 -7.39E-05
  POISSON|   iter        pres error      nabs error        E_hartree    delta E
  POISSON|      1        0.2336E-08      0.4811E-07    1993.0721044464  0.50E-05
  POISSON| Poisson solver converged in 1 iteration. 
    49 Broy./Diag. 0.30E+00   12.1     0.00000872     -5672.2685814199  1.05E-05
  POISSON|   iter        pres error      nabs error        E_hartree    delta E
  POISSON|      1        0.4202E-09      0.8784E-07    1993.0721122419  0.78E-05
  POISSON| Poisson solver converged in 1 iteration. 
    50 Broy./Diag. 0.30E+00   12.3     0.00000564     -5672.2685451756  3.62E-05
  POISSON|   iter        pres error      nabs error        E_hartree    delta E
  POISSON|      1        0.3775E-09      0.6395E-07    1993.0721216227  0.94E-05
  POISSON| Poisson solver converged in 1 iteration. 
    51 Broy./Diag. 0.30E+00   12.1     0.00000437     -5672.2686415371 -9.64E-05
  POISSON|   iter        pres error      nabs error        E_hartree    delta E
  POISSON|      1        0.4928E-09      0.4551E-07    1993.0721318205  0.10E-04
  POISSON| Poisson solver converged in 1 iteration. 
    52 Broy./Diag. 0.30E+00   12.1     0.00000455     -5672.2686382381  3.30E-06
  POISSON|   iter        pres error      nabs error        E_hartree    delta E
  POISSON|      1        0.4695E-09      0.5969E-07    1993.0721455359  0.14E-04
  POISSON| Poisson solver converged in 1 iteration. 
    53 Broy./Diag. 0.30E+00   12.2     0.00000327     -5672.2686035959  3.46E-05
  POISSON|   iter        pres error      nabs error        E_hartree    delta E
  POISSON|      1        0.2371E-09      0.3717E-07    1993.0721548203  0.93E-05
  POISSON| Poisson solver converged in 1 iteration. 
    54 Broy./Diag. 0.30E+00   12.2     0.00000370     -5672.2686060742 -2.48E-06
  POISSON|   iter        pres error      nabs error        E_hartree    delta E
  POISSON|      1        0.2444E-09      0.3915E-07    1993.0721677296  0.13E-04
  POISSON| Poisson solver converged in 1 iteration. 
    55 Broy./Diag. 0.30E+00   12.1     0.00000338     -5672.2686387387 -3.27E-05
  POISSON|   iter        pres error      nabs error        E_hartree    delta E
  POISSON|      1        0.1712E-08      0.2692E-07    1993.0721742322  0.65E-05
  POISSON| Poisson solver converged in 1 iteration. 
    56 Broy./Diag. 0.30E+00   12.1     0.00000378     -5672.2686128054  2.59E-05
  POISSON|   iter        pres error      nabs error        E_hartree    delta E
  POISSON|      1        0.1185E-08      0.2074E-07    1993.0721793018  0.51E-05
  POISSON| Poisson solver converged in 1 iteration. 
    57 Broy./Diag. 0.30E+00   12.1     0.00000358     -5672.2686165483 -3.74E-06
  POISSON|   iter        pres error      nabs error        E_hartree    delta E
  POISSON|      1        0.1255E-08      0.2359E-07    1993.0721834535  0.42E-05
  POISSON| Poisson solver converged in 1 iteration. 
    58 Broy./Diag. 0.30E+00   12.1     0.00000307     -5672.2686153831  1.17E-06
  POISSON|   iter        pres error      nabs error        E_hartree    delta E
  POISSON|      1        0.6277E-09      0.1936E-07    1993.0721854972  0.20E-05
  POISSON| Poisson solver converged in 1 iteration. 
    59 Broy./Diag. 0.30E+00   12.1     0.00000307     -5672.2686341421 -1.88E-05
  POISSON|   iter        pres error      nabs error        E_hartree    delta E
  POISSON|      1        0.5665E-09      0.1972E-07    1993.0721885512  0.31E-05
  POISSON| Poisson solver converged in 1 iteration. 
    60 Broy./Diag. 0.30E+00   12.1     0.00000229     -5672.2686509865 -1.68E-05
  POISSON|   iter        pres error      nabs error        E_hartree    delta E
  POISSON|      1        0.1613E-09      0.2458E-07    1993.0721898270  0.13E-05
  POISSON| Poisson solver converged in 1 iteration. 
    61 Broy./Diag. 0.30E+00   12.1     0.00000155     -5672.2686353071  1.57E-05
  POISSON|   iter        pres error      nabs error        E_hartree    delta E
  POISSON|      1        0.9169E-10      0.1530E-07    1993.0721899850  0.16E-06
  POISSON| Poisson solver converged in 1 iteration. 
    62 Broy./Diag. 0.30E+00   12.1     0.00000149     -5672.2686586227 -2.33E-05
  POISSON|   iter        pres error      nabs error        E_hartree    delta E
  POISSON|      1        0.2173E-09      0.2095E-07    1993.0721911630  0.12E-05
  POISSON| Poisson solver converged in 1 iteration. 
    63 Broy./Diag. 0.30E+00   12.3     0.00000098     -5672.2686699190 -1.13E-05

  *** SCF run converged in    63 steps ***


  Electronic density on regular grids:      -2159.9999999992        0.0000000008
  Core density on regular grids:             2159.9999999995       -0.0000000005
  Total charge density on r-space grids:        0.0000000003
  Total charge density g-space grids:           0.0000000003

  Overlap energy of the core charge distribution:               0.00003183472507
  Self energy of the core charge distribution:              -9891.63555570741482
  Core Hamiltonian energy:                                   3202.10703371486352
  Hartree energy:                                            1993.07219116304032
  Electric enthalpy:                                         1993.06517105677312
  Exchange-correlation energy:                               -971.07429613983015
  Dispersion energy:                                           -4.69913850405814
  Electronic entropic energy:                                  -0.03191619683212
  Fermi energy:                                                -0.18990165456443

  Total energy:                                             -5672.26866991903808

 The electron density is written in cube file format to the file:

 cp2k-ELECTRON_DENSITY-1_0.cube

 !-----------------------------------------------------------------------------!
                     Mulliken Population Analysis

 #  Atom  Element  Kind  Atomic population                           Net charge
       1     Pt       1         10.056658                             -0.056658
       2     Pt       1         10.052747                             -0.052747
       3     Pt       1         10.061112                             -0.061112
       4     Pt       1         10.040942                             -0.040942
       5     Pt       1         10.055193                             -0.055193
       6     Pt       1         10.031164                             -0.031164
       7     Pt       1         10.052933                             -0.052933
       8     Pt       1         10.033093                             -0.033093
       9     Pt       1         10.035104                             -0.035104
      10     Pt       1         10.043640                             -0.043640
      11     Pt       1         10.036583                             -0.036583
      12     Pt       1         10.028161                             -0.028161
      13     Pt       1         10.038680                             -0.038680
      14     Pt       1         10.061958                             -0.061958
      15     Pt       1         10.046251                             -0.046251
      16     Pt       1         10.045157                             -0.045157
      17     Pt       1         10.042572                             -0.042572
      18     Pt       1         10.056988                             -0.056988
      19     Pt       1         10.057537                             -0.057537
[...]
    191      1      Pt          0.01717898    -0.00459148    -0.00722938
    192      1      Pt          0.00901983     0.00814461     0.00338315
    193      1      Pt         -0.00127342     0.00222798     0.01553492
    194      1      Pt         -0.01491906     0.01808618    -0.00517077
    195      1      Pt         -0.00588787     0.00090066    -0.00511796
    196      1      Pt         -0.00079916    -0.00075680    -0.01529965
    197      1      Pt         -0.00333939    -0.00691288     0.00425868
    198      1      Pt         -0.00276007     0.00972355     0.01057528
    199      1      Pt         -0.00214910     0.00562737    -0.01499800
    200      1      Pt         -0.00705538    -0.00318909     0.01281336
    201      1      Pt         -0.00361392    -0.00127314    -0.00481927
    202      1      Pt         -0.00274875    -0.00255550    -0.00741136
    203      1      Pt          0.00138837     0.00750720     0.00361082
    204      1      Pt          0.00590450    -0.00858634    -0.01037893
    205      1      Pt         -0.00102659     0.00222162     0.01946318
    206      1      Pt          0.00556907    -0.00798683    -0.00600428
    207      1      Pt          0.00577738     0.00253564     0.01124335
    208      1      Pt         -0.00132501     0.00964265    -0.01113951
    209      1      Pt          0.00538764     0.00798698    -0.00008458
    210      1      Pt          0.01385434     0.00194500    -0.00457885
    211      1      Pt         -0.00821763     0.00242332    -0.00755397
    212      1      Pt          0.00221013    -0.00881929     0.00966486
    213      1      Pt          0.01375582    -0.00384762     0.00026344
    214      1      Pt         -0.01209015    -0.02280835    -0.00367643
    215      1      Pt         -0.01072905     0.00312672     0.00490812
    216      1      Pt          0.01091436    -0.00988050    -0.00040001
 SUM OF ATOMIC FORCES          -0.00002332    -0.00000508     0.00004335     0.00004948

 -------------------------------------------------------------------------------
 -                                                                             -
 -                                DBCSR STATISTICS                             -
 -                                                                             -
 -------------------------------------------------------------------------------
 COUNTER                                    TOTAL       BLAS       SMM       ACC
 flops    20 x    12 x    20            447897600       0.0%    100.0%      0.0%
 flops    20 x    32 x    20          58525286400       0.0%    100.0%      0.0%
 flops    20 x    20 x   204         248609088000       0.0%    100.0%      0.0%
 flops    20 x    20 x   224         272982528000       0.0%    100.0%      0.0%
 flops    20 x    20 x   192        1403910144000       0.0%    100.0%      0.0%
 flops inhomo. stacks                           0       0.0%      0.0%      0.0%
 flops total                         1.984475E+12       0.0%    100.0%      0.0%
 flops max/rank                     63.687885E+09       0.0%    100.0%      0.0%
 matmuls inhomo. stacks                         0       0.0%      0.0%      0.0%
 matmuls total                           14519520       0.0%    100.0%      0.0%
 number of processed stacks                 19072       0.0%    100.0%      0.0%
 average stack size                                     0.0     761.3       0.0
 marketing flops                     2.825151E+12
 -------------------------------------------------------------------------------
 # multiplications                             66
 max memory usage/rank               1.809646E+09
 # max total images/rank                        2
 # max 3D layers                                1
 # MPI messages exchanged                   27456
 MPI messages size (bytes):
  total size                        36.702028E+09
  min size                         829.440000E+03
  max size                           4.665600E+06
  average size                       1.336758E+06
 MPI breakdown and total messages size (bytes):
             size <=      128                   0                        0
       128 < size <=     8192                   0                        0
      8192 < size <=    32768                   0                        0
     32768 < size <=   131072                   0                        0
    131072 < size <=  4194304               27232              35656934400
   4194304 < size <= 16777216                 224               1045094400
  16777216 < size                               0                        0
 -------------------------------------------------------------------------------

 *** WARNING in dbcsr_mm.F:290 :: Using a non-square number of MPI ranks ***
 *** might lead to poor performance. Used ranks: 32 Suggested: 36 64     ***

 -------------------------------------------------------------------------------
 -                                                                             -
 -                      DBCSR MESSAGE PASSING PERFORMANCE                      -
 -                                                                             -
 -------------------------------------------------------------------------------
 ROUTINE             CALLS      AVE VOLUME [Bytes]
 MP_Bcast                6                     12.
 MP_Allreduce          485                      9.
 MP_Alltoall          1829                1275340.
 MP_ISend             2112                 578495.
 MP_IRecv             2112                 561506.
 -------------------------------------------------------------------------------

 -------------------------------------------------------------------------------
 -                                                                             -
 -                                DBM STATISTICS                               -
 -                                                                             -
 -------------------------------------------------------------------------------
    M  x    N  x    K                                          COUNT     PERCENT
 -------------------------------------------------------------------------------

 -------------------------------------------------------------------------------
 -                                                                             -
 -                                GRID STATISTICS                              -
 -                                                                             -
 -------------------------------------------------------------------------------
 LP    KERNEL             BACKEND                              COUNT     PERCENT
 4     collocate general  REF                               21799872      49.97%
 4     integrate general  REF                               21459249      49.19%
 5     integrate general  REF                                 340623       0.78%
 0     collocate general  REF                                  13824       0.03%
 0     integrate general  REF                                   6912       0.02%
 1     integrate general  REF                                   6912       0.02%
 -------------------------------------------------------------------------------

 MEMORY| Estimated peak process memory [MiB]                                2147

 -------------------------------------------------------------------------------
 ----                             MULTIGRID INFO                            ----
 -------------------------------------------------------------------------------
 count for grid        1:          17570          cutoff [a.u.]          200.00
 count for grid        2:         177748          cutoff [a.u.]           66.67
 count for grid        3:         109915          cutoff [a.u.]           22.22
 count for grid        4:         155039          cutoff [a.u.]            7.41
 total gridlevel count  :         460272

 -------------------------------------------------------------------------------
 -                                                                             -
 -                         MESSAGE PASSING PERFORMANCE                         -
 -                                                                             -
 -------------------------------------------------------------------------------

 ROUTINE             CALLS      AVE VOLUME [Bytes]
 MP_Group                4
 MP_Bcast             1770                 164528.
 MP_Allreduce         1616                   1565.
 MP_Sync                69
 MP_Alltoall          3125               49354576.
 MP_SendRecv           124                  14886.
 MP_ISendRecv         7936                 214800.
 MP_Wait             19240
 MP_comm_split           1
 MP_ISend            10136                 715003.
 MP_IRecv            10136                 715003.
 MP_Recv               192                1105920.
 MP_Write_All            3                4213860.
 -------------------------------------------------------------------------------


 -------------------------------------------------------------------------------
 -                                                                             -
 -                           R E F E R E N C E S                               -
 -                                                                             -
 -------------------------------------------------------------------------------
 
 CP2K version 2022.1, the CP2K developers group (2022).
 CP2K is freely available from https://www.cp2k.org/ .

 Kuehne,Thomas D.; Iannuzzi,Marcella; Del Ben,Mauro;
 Rybkin,Vladimir V.; Seewald,Patrick; Stein,Frederick; Laino,Teodoro;
 Khaliullin,Rustam Z.; Schuett,Ole; Schiffmann,Florian; Golze,Dorothea;
 Wilhelm,Jan; Chulkov,Sergey; Bani-Hashemian,Mohammad Hossein;
 Weber,Valery; Borstnik,Urban; Taillefumier,Mathieu;
 Jakobovits,Alice Shoshana; Lazzaro,Alfio; Pabst,Hans; Mueller,Tiziano;
 Schade,Robert; Guidon,Manuel; Andermatt,Samuel; Holmberg,Nico;
 Schenter,Gregory K.; Hehn,Anna; Bussy,Augustin; Belleflamme,Fabian;
 Tabacchi,Gloria; Gloess,Andreas; Lass,Michael; Bethune,Iain;
 Mundy,Christopher J.; Plessl,Christian; Watkins,Matt;
 VandeVondele,Joost; Krack,Matthias; Hutter,Juerg. 
 The Journal of Chemical Physics, 152 (19), (2020). 
 CP2K: An electronic structure and molecular dynamics software package -
 Quickstep: Efficient and accurate electronic structure calculations.
 https://doi.org/10.1063/5.0007045

 Goerigk, Lars; Hansen, Andreas; Bauer, Christoph; Ehrlich, Stephan;
 Najibi, Asim; Grimme, Stefan. , 19 (48), (2017). 
 A look at the density functional theory zoo with the advanced GMTKN55 database
 for general main group thermochemistry, kinetics and noncovalent interactions.
 https://doi.org/10.1039/C7CP04913G

 Bani-Hashemian, MH; Bruck, S; Luisier, M; VandeVondele, J. 
 JOURNAL OF CHEMICAL PHYSICS, 144 (4), 044113 (2016). 
 A generalized Poisson solver for first-principles device simulations.
 https://doi.org/10.1063/1.4940796

 Schuett, Ole; Messmer, Peter; Hutter, Juerg; VandeVondele, Joost. 
 Electronic Structure Calculations on Graphics Processing Units, John
 Wiley & Sons, Ltd, 173-190 (2016). 
 GPU-Accelerated Sparse Matrix-Matrix Multiplication for
 Linear Scaling Density Functional Theory.
 https://doi.org/10.1002/9781118670712.ch8

 Heinecke, A; Henry, G; Hutchinson, M; Pabst, H. 
 Proceedings of Intl. Supercomputing Conference, 981-991 (2016). 
 LIBXSMM: Accelerating Small Matrix Multiplications
 by Runtime Code Generation.
 https://doi.org/10.1109/SC.2016.83

 Borstnik, U; VandeVondele, J; Weber, V; Hutter, J. 
 PARALLEL COMPUTING, 40 (5-6), 47-58 (2014). 
 Sparse matrix multiplication: The distributed block-compressed sparse
 row library.
 https://doi.org/10.1016/j.parco.2014.03.012

 Hutter, J; Iannuzzi, M; Schiffmann, F; VandeVondele, J. 
 WIREs Comput Mol Sci., 4 (1), 15-25 (2014). 
 CP2K: atomistic simulations of condensed matter systems.
 https://doi.org/10.1002/wcms.1159

 Marek, A; Blum, V; Johanni, R; Havu, V; Lang, B; Auckenthaler, T;
 Heinecke, A; Bungartz, H; Lederer, H. 
 Journal of Physics: Condensed Matter, 26 (21), (2014). 
 The ELPA library: scalable parallel eigenvalue solutions for
 electronic structure
 theory and computational science.
 https://doi.org/10.1088/0953-8984/26/21/213201

 Grimme, S; Ehrlich, S; Goerigk, L. 
 JOURNAL OF COMPUTATIONAL CHEMISTRY, 32, 1456 (2011). 
 Effect of the damping function in dispersion corrected density functional theory.
 https://doi.org/10.1002/jcc.21759

 Grimme, S; Antony, J; Ehrlich, S; Krieg, H. 
 JOURNAL OF CHEMICAL PHYSICS, 132 (15), 154104 (2010). 
 A consistent and accurate ab initio parametrization of density
 functional dispersion correction (DFT-D) for the 94 elements H-Pu.
 https://doi.org/10.1063/1.3382344

 VandeVondele, J; Hutter, J. 
 JOURNAL OF CHEMICAL PHYSICS, 127 (11), 114105 (2007). 
 Gaussian basis sets for accurate calculations on molecular systems in
 gas and condensed phases.
 https://doi.org/10.1063/1.2770708

 Krack, M. 
 THEORETICAL CHEMISTRY ACCOUNTS, 114 (1-3), 145-152 (2005). 
 Pseudopotentials for H to Kr optimized for gradient-corrected
 exchange-correlation functionals.
 https://doi.org/10.1007/s00214-005-0655-y

 VandeVondele, J; Krack, M; Mohamed, F; Parrinello, M; Chassaing, T;
 Hutter, J. COMPUTER PHYSICS COMMUNICATIONS, 167 (2), 103-128 (2005). 
 QUICKSTEP: Fast and accurate density functional calculations using a
 mixed Gaussian and plane waves approach.
 https://doi.org/10.1016/j.cpc.2004.12.014

 Frigo, M; Johnson, SG. 
 PROCEEDINGS OF THE IEEE, 93 (2), 216-231 (2005). 
 The design and implementation of FFTW3.
 https://doi.org/10.1109/JPROC.2004.840301

 Hartwigsen, C; Goedecker, S; Hutter, J. 
 PHYSICAL REVIEW B, 58 (7), 3641-3662 (1998). 
 Relativistic separable dual-space Gaussian pseudopotentials from H to Rn.
 https://doi.org/10.1103/PhysRevB.58.3641

 Lippert, G; Hutter, J; Parrinello, M. 
 MOLECULAR PHYSICS, 92 (3), 477-487 (1997). 
 A hybrid Gaussian and plane wave density functional scheme.
 https://doi.org/10.1080/002689797170220

 Perdew, JP; Burke, K; Ernzerhof, M. 
 PHYSICAL REVIEW LETTERS, 77 (18), 3865-3868 (1996). 
 Generalized gradient approximation made simple.
 https://doi.org/10.1103/PhysRevLett.77.3865

 Goedecker, S; Teter, M; Hutter, J. 
 PHYSICAL REVIEW B, 54 (3), 1703-1710 (1996). 
 Separable dual-space Gaussian pseudopotentials.
 https://doi.org/10.1103/PhysRevB.54.1703


 -------------------------------------------------------------------------------
 -                                                                             -
 -                                T I M I N G                                  -
 -                                                                             -
 -------------------------------------------------------------------------------
 SUBROUTINE                       CALLS  ASD         SELF TIME        TOTAL TIME
                                MAXIMUM       AVERAGE  MAXIMUM  AVERAGE  MAXIMUM
 CP2K                                 1  1.0    0.020    0.039  831.450  831.452
 qs_forces                            1  2.0    0.001    0.001  831.036  831.038
 qs_energies                          1  3.0    0.000    0.000  816.817  816.820
 scf_env_do_scf                       1  4.0    0.000    0.000  804.803  804.894
 scf_env_do_scf_inner_loop           63  5.0    0.003    0.006  804.800  804.891
 rebuild_ks_matrix                   64  7.0    0.000    0.000  513.713  513.743
 qs_ks_build_kohn_sham_matrix        64  8.0    0.010    0.011  513.712  513.743
 qs_ks_update_qs_env                 63  6.0    0.001    0.001  503.962  503.993
 pw_transfer                       2982 12.1    0.225    0.310  288.659  291.840
 fft_wrap_pw1pw2                   2982 13.1    0.032    0.039  288.433  291.530
 fft_wrap_pw1pw2_200               2598 14.4   24.369   27.645  285.610  288.555
 pw_poisson_solve                    64  9.0    0.019    0.025  246.955  247.030
 implicit_poisson_solver_mixed_      64 10.0    6.602    7.198  232.249  232.397
 fft3d_ps                          2982 15.1  122.314  131.934  215.062  219.819
 qs_rho_update_rho_low               64  6.0    0.001    0.001  194.184  194.203
 calculate_rho_elec                  64  7.0    0.350    0.375  194.184  194.202
 sum_up_and_integrate                64  9.0    0.999    1.088  182.509  182.546
 integrate_v_rspace                  64 10.0    0.002    0.002  181.510  181.615
 grid_collocate_task_list            64  8.0   85.892  167.751   85.892  167.751
 derive_fft                         314 12.1    0.022    0.027  163.374  164.786
 grid_integrate_task_list            64 11.0   79.376  155.752   79.376  155.752
 rs_pw_transfer                     516 10.5    0.006    0.006  107.387  134.434
 density_rs2pw                       64  8.0    0.004    0.005  106.516  133.652
 apply_P_operator                   250 11.2    2.332    2.672  132.610  133.568
 mp_waitany                       10136 12.4   89.601  116.540   89.601  116.540
 rs_pw_transfer_RS2PW_200            66 10.0    3.673    4.277   88.058  115.095
 mp_alltoall_d11v                   912 10.3   78.660  103.802   78.660  103.802
 rs_gather_matrices                  64 11.0    0.239    0.285   77.491  102.661
 qs_scf_new_mos                      63  6.0    0.001    0.002   78.958   79.068
 qs_vxc_create                       64  9.0    0.002    0.003   75.736   76.713
 xc_vxc_pw_create                    64 10.0    1.694    2.146   75.734   76.711
 eigensolver                         63  7.0    0.006    0.010   71.343   71.418
 x_to_yz                           1868 16.3   41.083   48.619   63.460   66.358
 mp_alltoall_z22v                  2982 17.1   40.098   61.116   40.098   61.116
 xc_pw_derive                       384 12.0    0.007    0.007   51.141   54.211
 apply_poisson_operator_fft          64 11.0    0.001    0.001   48.979   49.286
 cp_fm_diag_elpa                     64  8.0    0.001    0.001   45.286   45.418
 cp_fm_diag_elpa_base                64  9.0   44.319   44.435   45.165   45.231
 yz_to_x                           1114 15.8   11.496   12.006   29.217   41.586
 xc_rho_set_and_dset_create          64 11.0    0.726    0.911   39.438   40.254
 apply_inv_laplace_operator_fft     159 11.6    1.318    1.427   35.396   36.540
 pw_scatter_p                      1868 15.3   31.769   35.616   31.769   35.616
 xc_pw_divergence                    64 11.0    0.004    0.004   33.582   35.503
 ps_implicit_compute_veps            64 11.0    0.773    0.926   33.874   34.658
 gspace_mixing                       62  6.0    0.340    0.364   30.076   30.076
 pw_derive                         1326 13.1   25.334   26.992   25.334   26.992
 cp_fm_triangular_multiply          189  8.0   25.306   25.595   25.306   25.595
 ps_implicit_compute_error_fft       93 10.9    1.722    1.859   23.212   24.927
 potential_pw2rs                     64 11.0    0.052    0.059   24.631   24.746
 broyden_mixing                      62  7.0   22.005   22.299   22.487   22.590
 pw_gather_p                       1114 14.8   16.911   17.341   16.911   17.341
 -------------------------------------------------------------------------------

 The number of warnings for this run is : 1
 
 -------------------------------------------------------------------------------
  **** **** ******  **  PROGRAM ENDED AT                 2023-12-03 00:13:57.453
 ***** ** ***  *** **   PROGRAM RAN ON                                     cu042
 **    ****   ******    PROGRAM RAN BY                                     jxzhu
 ***** **    ** ** **   PROGRAM PROCESS ID                                 44333
  **** **  *******  **  PROGRAM STOPPED IN /public/home/jxzhu/tmp_calc/04c0855f9
                                           8753fac23fde4df51ba20f3741a9e9a/calc/
                                           task.000.000008
