 DBCSR| CPU Multiplication driver                                           XSMM
 DBCSR| Multrec recursion limit                                              512
 DBCSR| Multiplication stack size                                           1000
 DBCSR| Maximum elements for images                                    UNLIMITED
 DBCSR| Multiplicative factor virtual images                                   1
 DBCSR| Use multiplication densification                                       T
 DBCSR| Multiplication size stacks                                             3
 DBCSR| Use memory pool for CPU allocation                                     F
 DBCSR| Number of 3D layers                                               SINGLE
 DBCSR| Use MPI memory allocation                                              F
 DBCSR| Use RMA algorithm                                                      F
 DBCSR| Use Communication thread                                               T
 DBCSR| Communication thread load                                             87
 DBCSR| MPI: My node id                                                        0
 DBCSR| MPI: Number of nodes                                                 128
 DBCSR| OMP: Current number of threads                                         1
 DBCSR| OMP: Max number of threads                                             1
 DBCSR| Split modifier for TAS multiplication algorithm                  1.0E+00


  **** **** ******  **  PROGRAM STARTED AT               2023-12-03 05:41:37.545
 ***** ** ***  *** **   PROGRAM STARTED ON                                 cu001
 **    ****   ******    PROGRAM STARTED BY                                 jxzhu
 ***** **    ** ** **   PROGRAM PROCESS ID                                 29846
  **** **  *******  **  PROGRAM STARTED IN /public/home/jxzhu/tmp_calc/807d5ee60
                                           8ab2a008cf1b4e3aa4b083fbeb94155/calc/
                                           002800.000/search_lo.000000

 CP2K| version string:                                       CP2K version 2022.1
 CP2K| source code revision number:                                  git:2caeb6f
 CP2K| cp2kflags: omp libint fftw3 libxc elpa parallel mpi3 scalapack cosma xsmm
 CP2K|             plumed2 spglib mkl sirius libvori libbqb
 CP2K| is freely available from                            https://www.cp2k.org/
 CP2K| Program compiled at                           Mon Jul 3 17:37:06 CST 2023
 CP2K| Program compiled on                                                 mu003
 CP2K| Program compiled for                                                local
 CP2K| Data directory path                             /public/home/jxzhu/basis/
 CP2K| Input file name                                                 input.inp
 
 GLOBAL| Force Environment number                                              1
 GLOBAL| Basis set file name                                        BASIS_MOLOPT
 GLOBAL| Potential file name                                      GTH_POTENTIALS
 GLOBAL| MM Potential file name                                     MM_POTENTIAL
 GLOBAL| Coordinate file name                                          coord.xyz
 GLOBAL| Method name                                                        CP2K
 GLOBAL| Project name                                                       cp2k
 GLOBAL| Run type                                                   ENERGY_FORCE
 GLOBAL| FFT library                                                       FFTW3
 GLOBAL| Diagonalization library                                            ELPA
 GLOBAL| Minimum number of eigenvectors for ELPA usage                        16
 GLOBAL| Orthonormality check for eigenvectors                          DISABLED
 GLOBAL| Matrix multiplication library                                     COSMA
 GLOBAL| All-to-all communication in single precision                          F
 GLOBAL| FFTs using library dependent lengths                                  T
 GLOBAL| Grid backend                                                       AUTO
 GLOBAL| Global print level                                               MEDIUM
 GLOBAL| MPI I/O enabled                                                       T
 GLOBAL| Total number of message passing processes                           128
 GLOBAL| Number of threads for this process                                    1
 GLOBAL| This output is from process                                           0
 GLOBAL| Stack size for threads created by OpenMP (OMP_STACKSIZE)        default
 GLOBAL| CPU model name                 Intel(R) Xeon(R) Gold 6338 CPU @ 2.00GHz
 GLOBAL| CPUID                                                              1003

 MEMORY| system memory details [Kb]
 MEMORY|                        rank 0           min           max       average
 MEMORY| MemTotal            263619172     263619172     263619172     263619172
 MEMORY| MemFree             218773428     215801672     218776528     217287738
 MEMORY| Buffers                    20            20            36            28
 MEMORY| Cached                1449340        648284       1449340       1048811
 MEMORY| Slab                  1384960       1384960       1423932       1404446
 MEMORY| SReclaimable           242088        231496        242088        236792
 MEMORY| MemLikelyFree       220464876     216681488     220467968     218573370


 *** Fundamental physical constants (SI units) ***

 *** Literature: B. J. Mohr and B. N. Taylor,
 ***             CODATA recommended values of the fundamental physical
 ***             constants: 2006, Web Version 5.1
 ***             http://physics.nist.gov/constants

 Speed of light in vacuum [m/s]                             2.99792458000000E+08
 Magnetic constant or permeability of vacuum [N/A**2]       1.25663706143592E-06
 Electric constant or permittivity of vacuum [F/m]          8.85418781762039E-12
 Planck constant (h) [J*s]                                  6.62606896000000E-34
 Planck constant (h-bar) [J*s]                              1.05457162825177E-34
 Elementary charge [C]                                      1.60217648700000E-19
 Electron mass [kg]                                         9.10938215000000E-31
 Electron g factor [ ]                                     -2.00231930436220E+00
 Proton mass [kg]                                           1.67262163700000E-27
 Fine-structure constant                                    7.29735253760000E-03
 Rydberg constant [1/m]                                     1.09737315685270E+07
 Avogadro constant [1/mol]                                  6.02214179000000E+23
 Boltzmann constant [J/K]                                   1.38065040000000E-23
 Atomic mass unit [kg]                                      1.66053878200000E-27
 Bohr radius [m]                                            5.29177208590000E-11

 *** Conversion factors ***

 [u] -> [a.u.]                                              1.82288848426455E+03
 [Angstrom] -> [Bohr] = [a.u.]                              1.88972613288564E+00
 [a.u.] = [Bohr] -> [Angstrom]                              5.29177208590000E-01
 [a.u.] -> [s]                                              2.41888432650478E-17
 [a.u.] -> [fs]                                             2.41888432650478E-02
 [a.u.] -> [J]                                              4.35974393937059E-18
 [a.u.] -> [N]                                              8.23872205491840E-08
 [a.u.] -> [K]                                              3.15774647902944E+05
 [a.u.] -> [kJ/mol]                                         2.62549961709828E+03
 [a.u.] -> [kcal/mol]                                       6.27509468713739E+02
 [a.u.] -> [Pa]                                             2.94210107994716E+13
 [a.u.] -> [bar]                                            2.94210107994716E+08
 [a.u.] -> [atm]                                            2.90362800883016E+08
 [a.u.] -> [eV]                                             2.72113838565563E+01
 [a.u.] -> [Hz]                                             6.57968392072181E+15
 [a.u.] -> [1/cm] (wave numbers)                            2.19474631370540E+05
 [a.u./Bohr**2] -> [1/cm]                                   5.14048714338585E+03
 

 CELL_TOP| Volume [angstrom^3]:                                     17614.982639
 CELL_TOP| Vector a [angstrom    16.869     0.000     0.000   |a| =    16.869000
 CELL_TOP| Vector b [angstrom    -8.434    14.609     0.000   |b| =    16.869015
 CELL_TOP| Vector c [angstrom     0.000     0.000    71.478   |c| =    71.478000
 CELL_TOP| Angle (b,c), alpha [degree]:                                90.000000
 CELL_TOP| Angle (a,c), beta  [degree]:                                90.000000
 CELL_TOP| Angle (a,b), gamma [degree]:                               119.999970
 CELL_TOP| Numerically orthorhombic:                                          NO
 
 GENERATE|  Preliminary Number of Bonds generated:                             0
 GENERATE|  Achieved consistency in connectivity generation.

 CELL| Volume [angstrom^3]:                                         17614.982639
 CELL| Vector a [angstrom]:      16.869     0.000     0.000   |a| =    16.869000
 CELL| Vector b [angstrom]:      -8.434    14.609     0.000   |b| =    16.869015
 CELL| Vector c [angstrom]:       0.000     0.000    71.478   |c| =    71.478000
 CELL| Angle (b,c), alpha [degree]:                                    90.000000
 CELL| Angle (a,c), beta  [degree]:                                    90.000000
 CELL| Angle (a,b), gamma [degree]:                                   119.999970
 CELL| Numerically orthorhombic:                                              NO

 CELL_REF| Volume [angstrom^3]:                                     17614.982639
 CELL_REF| Vector a [angstrom    16.869     0.000     0.000   |a| =    16.869000
 CELL_REF| Vector b [angstrom    -8.434    14.609     0.000   |b| =    16.869015
 CELL_REF| Vector c [angstrom     0.000     0.000    71.478   |c| =    71.478000
 CELL_REF| Angle (b,c), alpha [degree]:                                90.000000
 CELL_REF| Angle (a,c), beta  [degree]:                                90.000000
 CELL_REF| Angle (a,b), gamma [degree]:                               119.999970
 CELL_REF| Numerically orthorhombic:                                          NO

 *******************************************************************************
 *******************************************************************************
 **                                                                           **
 **     #####                         ##              ##                      **
 **    ##   ##            ##          ##              ##                      **
 **   ##     ##                       ##            ######                    **
 **   ##     ##  ##   ##  ##   #####  ##  ##   ####   ##    #####    #####    **
 **   ##     ##  ##   ##  ##  ##      ## ##   ##      ##   ##   ##  ##   ##   **
 **   ##  ## ##  ##   ##  ##  ##      ####     ###    ##   ######   ######    **
 **    ##  ###   ##   ##  ##  ##      ## ##      ##   ##   ##       ##        **
 **     #######   #####   ##   #####  ##  ##  ####    ##    #####   ##        **
 **           ##                                                    ##        **
 **                                                                           **
 **                                                ... make the atoms dance   **
 **                                                                           **
 **            Copyright (C) by CP2K developers group (2000-2022)             **
 **                      J. Chem. Phys. 152, 194103 (2020)                    **
 **                                                                           **
 *******************************************************************************

 DFT| Spin restricted Kohn-Sham (RKS) calculation                            RKS
 DFT| Multiplicity                                                             1
 DFT| Number of spin states                                                    1
 DFT| Charge                                                                   0
 DFT| Self-interaction correction (SIC)                                       NO
 DFT| Cutoffs: density                                              1.000000E-10
 DFT|          gradient                                             1.000000E-10
 DFT|          tau                                                  1.000000E-10
 DFT|          cutoff_smoothing_range                               0.000000E+00
 DFT| XC density smoothing                                                  NONE
 DFT| XC derivatives                                                          PW

 FUNCTIONAL| PBE:
 FUNCTIONAL| J.P.Perdew, K.Burke, M.Ernzerhof, Phys. Rev. Letter, vol. 77, n 18,
 FUNCTIONAL|  pp. 3865-3868, (1996){spin unpolarized}                           

 vdW POTENTIAL|                                                   Pair Potential
 vdW POTENTIAL|          DFT-D3 (Version 3.1)
 vdW POTENTIAL|          Potential Form: S. Grimme et al, JCP 132: 154104 (2010)
 vdW POTENTIAL|          Zero Damping
 vdW POTENTIAL|          Cutoff Radius [Bohr]:                             20.00
 vdW POTENTIAL|          s6 Scaling Factor:                               1.0000
 vdW POTENTIAL|          sr6 Scaling Factor:                              1.2170
 vdW POTENTIAL|          s8 Scaling Factor:                               0.7220
 vdW POTENTIAL|          Cutoff for CN calculation:                   0.1000E-05

 QS| Method:                                                                 GPW
 QS| Density plane wave grid type                        NON-SPHERICAL FULLSPACE
 QS| Number of grid levels:                                                    4
 QS| Density cutoff [a.u.]:                                                200.0
 QS| Multi grid cutoff [a.u.]: 1) grid level                               200.0
 QS|                           2) grid level                                66.7
 QS|                           3) grid level                                22.2
 QS|                           4) grid level                                 7.4
 QS| Grid level progression factor:                                          3.0
 QS| Relative density cutoff [a.u.]:                                        20.0
 QS| Interaction thresholds: eps_pgf_orb:                                3.2E-07
 QS|                         eps_filter_matrix:                          0.0E+00
 QS|                         eps_core_charge:                            1.0E-15
 QS|                         eps_rho_gspace:                             1.0E-13
 QS|                         eps_rho_rspace:                             1.0E-13
 QS|                         eps_gvg_rspace:                             3.2E-07
 QS|                         eps_ppl:                                    1.0E-02
 QS|                         eps_ppnl:                                   3.2E-09


 ATOMIC KIND INFORMATION

  1. Atomic kind: O                                     Number of atoms:     102

     Orbital Basis Set                                        DZVP-MOLOPT-SR-GTH

       Number of orbital shell sets:                                           1
       Number of orbital shells:                                               5
       Number of primitive Cartesian functions:                                5
       Number of Cartesian basis functions:                                   14
       Number of spherical basis functions:                                   13
       Norm type:                                                              2

       Normalised Cartesian orbitals:

                        Set   Shell   Orbital            Exponent    Coefficient

                          1       1    2s               10.389228       0.396646
                                                         3.849621       0.208811
                                                         1.388401      -0.301641
                                                         0.496955      -0.274061
                                                         0.162492      -0.033677

                          1       2    3s               10.389228       0.303673
                                                         3.849621       0.240943
                                                         1.388401      -0.313066
                                                         0.496955      -0.043055
                                                         0.162492       0.213991

                          1       3    3px              10.389228      -1.530415
                                                         3.849621      -1.371928
                                                         1.388401      -0.761951
                                                         0.496955      -0.253695
                                                         0.162492      -0.035541
                          1       3    3py              10.389228      -1.530415
                                                         3.849621      -1.371928
                                                         1.388401      -0.761951
                                                         0.496955      -0.253695
                                                         0.162492      -0.035541
                          1       3    3pz              10.389228      -1.530415
                                                         3.849621      -1.371928
                                                         1.388401      -0.761951
                                                         0.496955      -0.253695
                                                         0.162492      -0.035541

                          1       4    4px              10.389228      -0.565392
                                                         3.849621      -0.038231
                                                         1.388401      -0.382373
                                                         0.496955       0.179070
                                                         0.162492       0.122714
                          1       4    4py              10.389228      -0.565392
                                                         3.849621      -0.038231
                                                         1.388401      -0.382373
                                                         0.496955       0.179070
                                                         0.162492       0.122714
                          1       4    4pz              10.389228      -0.565392
                                                         3.849621      -0.038231
                                                         1.388401      -0.382373
                                                         0.496955       0.179070
                                                         0.162492       0.122714

                          1       5    4dx2             10.389228       1.867377
                                                         3.849621       0.670994
                                                         1.388401       1.353441
                                                         0.496955       0.273538
                                                         0.162492       0.006620
                          1       5    4dxy             10.389228       3.234392
                                                         3.849621       1.162195
                                                         1.388401       2.344229
                                                         0.496955       0.473781
                                                         0.162492       0.011466
                          1       5    4dxz             10.389228       3.234392
                                                         3.849621       1.162195
                                                         1.388401       2.344229
                                                         0.496955       0.473781
                                                         0.162492       0.011466
                          1       5    4dy2             10.389228       1.867377
                                                         3.849621       0.670994
                                                         1.388401       1.353441
                                                         0.496955       0.273538
                                                         0.162492       0.006620
                          1       5    4dyz             10.389228       3.234392
                                                         3.849621       1.162195
                                                         1.388401       2.344229
                                                         0.496955       0.473781
                                                         0.162492       0.011466
                          1       5    4dz2             10.389228       1.867377
                                                         3.849621       0.670994
                                                         1.388401       1.353441
                                                         0.496955       0.273538
                                                         0.162492       0.006620

       Atomic covalent radius [Angstrom]:                                  0.730

       Atomic van der Waals radius [Angstrom]:                             1.520

     GTH Potential information for                                    GTH-PBE-q6

       Description:                       Goedecker-Teter-Hutter pseudopotential
                                           Goedecker et al., PRB 54, 1703 (1996)
                                          Hartwigsen et al., PRB 58, 3641 (1998)
                                                      Krack, TCA 114, 145 (2005)

       Gaussian exponent of the core charge distribution:               8.360253
       Electronic configuration (s p d ...):                               2   4

       Parameters of the local part of the GTH pseudopotential:

                          rloc        C1          C2          C3          C4
                        0.244554  -16.667215    2.487311

       Parameters of the non-local part of the GTH pseudopotential:

                   l      r(l)      h(i,j,l)

                   0    0.220956   18.337458
                   1    0.211332

  2. Atomic kind: H                                     Number of atoms:     204

     Orbital Basis Set                                        DZVP-MOLOPT-SR-GTH

       Number of orbital shell sets:                                           1
       Number of orbital shells:                                               3
       Number of primitive Cartesian functions:                                5
       Number of Cartesian basis functions:                                    5
       Number of spherical basis functions:                                    5
       Norm type:                                                              2

       Normalised Cartesian orbitals:

                        Set   Shell   Orbital            Exponent    Coefficient

                          1       1    2s               10.068468      -0.133023
                                                         2.680223      -0.177618
                                                         0.791502      -0.258419
                                                         0.239116      -0.107525
                                                         0.082193      -0.014019

                          1       2    3s               10.068468       0.344673
                                                         2.680223       1.819821
                                                         0.791502      -0.999069
                                                         0.239116       0.017430
                                                         0.082193       0.082660

                          1       3    3px              10.068468       0.155326
                                                         2.680223       0.367157
                                                         0.791502       0.311480
                                                         0.239116       0.080105
                                                         0.082193       0.033440
                          1       3    3py              10.068468       0.155326
                                                         2.680223       0.367157
                                                         0.791502       0.311480
                                                         0.239116       0.080105
                                                         0.082193       0.033440
                          1       3    3pz              10.068468       0.155326
                                                         2.680223       0.367157
                                                         0.791502       0.311480
                                                         0.239116       0.080105
                                                         0.082193       0.033440

       Atomic covalent radius [Angstrom]:                                  0.320

       Atomic van der Waals radius [Angstrom]:                             1.090

     GTH Potential information for                                    GTH-PBE-q1

       Description:                       Goedecker-Teter-Hutter pseudopotential
                                           Goedecker et al., PRB 54, 1703 (1996)
                                          Hartwigsen et al., PRB 58, 3641 (1998)
                                                      Krack, TCA 114, 145 (2005)

       Gaussian exponent of the core charge distribution:              12.500000
       Electronic configuration (s p d ...):                                   1

       Parameters of the local part of the GTH pseudopotential:

                          rloc        C1          C2          C3          C4
                        0.200000   -4.178900    0.724463

  3. Atomic kind: Pt                                    Number of atoms:     216

     Orbital Basis Set                      DZVP-A5-Q10-323-MOL-T1-DERIVED_SET-1

       Number of orbital shell sets:                                           1
       Number of orbital shells:                                               6
       Number of primitive Cartesian functions:                                5
       Number of Cartesian basis functions:                                   23
       Number of spherical basis functions:                                   20
       Norm type:                                                              2

       Normalised Cartesian orbitals:

                        Set   Shell   Orbital            Exponent    Coefficient

                          1       1    2s                2.521825       0.177473
                                                         1.453920      -0.063399
                                                         0.614053      -0.407089
                                                         0.232656       0.262254
                                                         0.074788       0.047371

                          1       2    3s                2.521825      -0.049056
                                                         1.453920       0.044904
                                                         0.614053      -0.009756
                                                         0.232656      -0.144709
                                                         0.074788       0.144085

                          1       3    3px               2.521825      -0.317572
                                                         1.453920       0.534826
                                                         0.614053      -0.489458
                                                         0.232656       0.245631
                                                         0.074788       0.018221
                          1       3    3py               2.521825      -0.317572
                                                         1.453920       0.534826
                                                         0.614053      -0.489458
                                                         0.232656       0.245631
                                                         0.074788       0.018221
                          1       3    3pz               2.521825      -0.317572
                                                         1.453920       0.534826
                                                         0.614053      -0.489458
                                                         0.232656       0.245631
                                                         0.074788       0.018221

                          1       4    4dx2              2.521825       3.008522
                                                         1.453920      -1.224251
                                                         0.614053       0.225691
                                                         0.232656       0.125144
                                                         0.074788      -0.015348
                          1       4    4dxy              2.521825       5.210912
                                                         1.453920      -2.120465
                                                         0.614053       0.390909
                                                         0.232656       0.216756
                                                         0.074788      -0.026584
                          1       4    4dxz              2.521825       5.210912
                                                         1.453920      -2.120465
                                                         0.614053       0.390909
                                                         0.232656       0.216756
                                                         0.074788      -0.026584
                          1       4    4dy2              2.521825       3.008522
                                                         1.453920      -1.224251
                                                         0.614053       0.225691
                                                         0.232656       0.125144
                                                         0.074788      -0.015348
                          1       4    4dyz              2.521825       5.210912
                                                         1.453920      -2.120465
                                                         0.614053       0.390909
                                                         0.232656       0.216756
                                                         0.074788      -0.026584
                          1       4    4dz2              2.521825       3.008522
                                                         1.453920      -1.224251
                                                         0.614053       0.225691
                                                         0.232656       0.125144
                                                         0.074788      -0.015348

                          1       5    5dx2              2.521825       0.698026
                                                         1.453920      -1.511486
                                                         0.614053      -0.335394
                                                         0.232656      -0.025564
                                                         0.074788      -0.002699
                          1       5    5dxy              2.521825       1.209017
                                                         1.453920      -2.617970
                                                         0.614053      -0.580920
                                                         0.232656      -0.044277
                                                         0.074788      -0.004674
                          1       5    5dxz              2.521825       1.209017
                                                         1.453920      -2.617970
                                                         0.614053      -0.580920
                                                         0.232656      -0.044277
                                                         0.074788      -0.004674
                          1       5    5dy2              2.521825       0.698026
                                                         1.453920      -1.511486
                                                         0.614053      -0.335394
                                                         0.232656      -0.025564
                                                         0.074788      -0.002699
                          1       5    5dyz              2.521825       1.209017
                                                         1.453920      -2.617970
                                                         0.614053      -0.580920
                                                         0.232656      -0.044277
                                                         0.074788      -0.004674
                          1       5    5dz2              2.521825       0.698026
                                                         1.453920      -1.511486
                                                         0.614053      -0.335394
                                                         0.232656      -0.025564
                                                         0.074788      -0.002699

                          1       6    6dx2              2.521825       0.831079
                                                         1.453920      -0.709226
                                                         0.614053      -0.137351
                                                         0.232656       0.068642
                                                         0.074788       0.011745
                          1       6    6dxy              2.521825       1.439472
                                                         1.453920      -1.228415
                                                         0.614053      -0.237899
                                                         0.232656       0.118891
                                                         0.074788       0.020343
                          1       6    6dxz              2.521825       1.439472
                                                         1.453920      -1.228415
                                                         0.614053      -0.237899
                                                         0.232656       0.118891
                                                         0.074788       0.020343
                          1       6    6dy2              2.521825       0.831079
                                                         1.453920      -0.709226
                                                         0.614053      -0.137351
                                                         0.232656       0.068642
                                                         0.074788       0.011745
                          1       6    6dyz              2.521825       1.439472
                                                         1.453920      -1.228415
                                                         0.614053      -0.237899
                                                         0.232656       0.118891
                                                         0.074788       0.020343
                          1       6    6dz2              2.521825       0.831079
                                                         1.453920      -0.709226
                                                         0.614053      -0.137351
                                                         0.232656       0.068642
                                                         0.074788       0.011745

       Atomic covalent radius [Angstrom]:                                  1.300

       Atomic van der Waals radius [Angstrom]:                             1.750

     GTH Potential information for                                   GTH-PBE-q10

       Description:                       Goedecker-Teter-Hutter pseudopotential
                                           Goedecker et al., PRB 54, 1703 (1996)
                                          Hartwigsen et al., PRB 58, 3641 (1998)
                                                      Krack, TCA 114, 145 (2005)

       Gaussian exponent of the core charge distribution:               1.317676
       Electronic configuration (s p d ...):                           1   0   9

       Parameters of the local part of the GTH pseudopotential:

                          rloc        C1          C2          C3          C4
                        0.616000   11.313635

       Parameters of the non-local part of the GTH pseudopotential:

                   l      r(l)      h(i,j,l)

                   0    0.550904    4.733491   -1.784594
                                   -1.784594    2.303901
                   1    0.674138    2.534798   -1.778066
                                   -1.778066    2.103836
                   2    0.457392   -7.264011    2.558665
                                    2.558665   -2.901253


 MOLECULE KIND INFORMATION


 All atoms are their own molecule, skipping detailed information


 TOTAL NUMBERS AND MAXIMUM NUMBERS

  Total number of            - Atomic kinds:                                   3
                             - Atoms:                                        522
                             - Shell sets:                                   522
                             - Shells:                                      2418
                             - Primitive Cartesian functions:               2610
                             - Cartesian basis functions:                   7416
                             - Spherical basis functions:                   6666

  Maximum angular momentum of- Orbital basis functions:                        2
                             - Local part of the GTH pseudopotential:          2
                             - Non-local part of the GTH pseudopotential:      4


 MODULE QUICKSTEP:  ATOMIC COORDINATES IN angstrom

 Atom  Kind  Element       X           Y           Z          Z(eff)       Mass
    1   1 O    8       4.840000    0.760000   29.698000       6.0000     15.9994
    2   2 H    1       4.050000    0.930000   29.168001       1.0000      1.0079
    3   2 H    1       4.690000   -0.230000   29.898000       1.0000      1.0079
    4   1 O    8      10.180000   11.030001   33.528001       6.0000     15.9994
    5   2 H    1      10.900001   11.050000   32.818000       1.0000      1.0079
    6   2 H    1      10.130000   10.050000   33.788000       1.0000      1.0079
    7   1 O    8      -7.990000  -24.370001   29.218001       6.0000     15.9994
    8   2 H    1      -7.050000  -24.650002   29.488000       1.0000      1.0079
    9   2 H    1      -8.520000  -24.960001   29.838001       1.0000      1.0079
   10   1 O    8      25.410002    9.240000   31.378001       6.0000     15.9994
   11   2 H    1      25.130001   10.190001   31.348001       1.0000      1.0079
   12   2 H    1      25.710001    9.120001   32.298001       1.0000      1.0079
   13   1 O    8       9.870001   30.960003   30.008001       6.0000     15.9994
   14   2 H    1      10.200001   31.280003   29.138001       1.0000      1.0079
   15   2 H    1      17.480000   15.860001   30.008001       1.0000      1.0079
   16   1 O    8      15.510001   11.560000   34.848001       6.0000     15.9994
   17   2 H    1      15.680000   11.210001   35.768001       1.0000      1.0079
   18   2 H    1      15.190001   12.490001   34.878002       1.0000      1.0079
   19   1 O    8     -14.080001  -44.320000   30.218000       6.0000     15.9994
   20   2 H    1     -14.470000  -43.380005   30.188001       1.0000      1.0079
   21   2 H    1     -14.150001  -44.590000   31.168001       1.0000      1.0079
   22   1 O    8      34.900002   29.570004   30.918001       6.0000     15.9994
   23   2 H    1      33.930000   29.650002   30.718001       1.0000      1.0079
   24   2 H    1      35.060001   29.610003   31.868001       1.0000      1.0079
   25   1 O    8     -24.150002   21.670000   39.608001       6.0000     15.9994
   26   2 H    1     -24.070000   20.760002   39.278001       1.0000      1.0079
   27   2 H    1     -23.280001   21.620003   40.128002       1.0000      1.0079
   28   1 O    8      21.340000    4.120000   29.668001       6.0000     15.9994
   29   2 H    1      21.560001    5.000000   30.148000       1.0000      1.0079
   30   2 H    1      21.700001    4.310000   28.768000       1.0000      1.0079
   31   1 O    8      32.800003  -27.000000   33.808001       6.0000     15.9994
   32   2 H    1      32.660004  -28.030003   33.688000       1.0000      1.0079
   33   2 H    1      50.450001  -26.750002   33.278000       1.0000      1.0079
   34   1 O    8      21.790001  -22.810001   31.088001       6.0000     15.9994
   35   2 H    1      22.580002  -22.430000   30.668001       1.0000      1.0079
   36   2 H    1      20.980000  -22.220001   30.948000       1.0000      1.0079
   37   1 O    8      10.200001   -2.530000   28.988000       6.0000     15.9994
   38   2 H    1      -6.020000   -3.320000   29.288000       1.0000      1.0079
   39   2 H    1      10.500001   -1.710000   29.398001       1.0000      1.0079
   40   1 O    8     -11.650001    2.830000   39.188001       6.0000     15.9994
   41   2 H    1     -10.910001    2.570000   38.608001       1.0000      1.0079
   42   2 H    1     -12.440001    2.570000   38.678001       1.0000      1.0079
   43   1 O    8      13.690001   57.450005   29.638001       6.0000     15.9994
   44   2 H    1      13.520001   57.820000   28.718001       1.0000      1.0079
   45   2 H    1      12.840000   57.610001   30.158000       1.0000      1.0079
   46   1 O    8     -25.090000   -6.550000   33.588001       6.0000     15.9994
   47   2 H    1     -25.820000   -6.520000   34.298000       1.0000      1.0079
   48   2 H    1     -24.970001   -5.650000   33.328000       1.0000      1.0079
   49   1 O    8       3.330000    3.440000   34.398000       6.0000     15.9994
   50   2 H    1       4.080000    3.480000   33.788000       1.0000      1.0079
   51   2 H    1       3.620000    4.280000   34.858000       1.0000      1.0079
   52   1 O    8      32.650002   21.910002   29.658000       6.0000     15.9994
   53   2 H    1      32.930000   21.090002   29.248000       1.0000      1.0079
   54   2 H    1      16.500000   22.350002   30.198000       1.0000      1.0079
   55   1 O    8      -9.670001   15.280001   30.018001       6.0000     15.9994
   56   2 H    1      -9.440001   15.260000   29.058000       1.0000      1.0079
   57   2 H    1     -10.490000   14.690001   29.948000       1.0000      1.0079
   58   1 O    8      31.290001    9.710001   32.828000       6.0000     15.9994
   59   2 H    1      31.560001   10.090000   33.658000       1.0000      1.0079
   60   2 H    1      32.070004    9.760000   32.248000       1.0000      1.0079
   61   1 O    8     -48.660004    6.900001   35.748001       6.0000     15.9994
   62   2 H    1     -49.000000    7.250000   34.898001       1.0000      1.0079
   63   2 H    1     -47.750000    6.510000   35.438001       1.0000      1.0079
   64   1 O    8      16.170002   20.290001   33.608000       6.0000     15.9994
   65   2 H    1      16.639999   20.570002   34.508001       1.0000      1.0079
   66   2 H    1      16.980001   19.820002   33.268001       1.0000      1.0079
   67   1 O    8       2.170000    0.680000   33.508001       6.0000     15.9994
   68   2 H    1       1.650000   -0.050000   33.978001       1.0000      1.0079
   69   2 H    1       2.060000    1.360000   34.168001       1.0000      1.0079
   70   1 O    8     -10.250001   -7.440000   29.848000       6.0000     15.9994
   71   2 H    1      -9.840000   -8.010000   30.538000       1.0000      1.0079
   72   2 H    1     -18.600002    6.650000   28.918001       1.0000      1.0079
   73   1 O    8       4.090000   21.390001   30.558001       6.0000     15.9994
   74   2 H    1       4.850000   21.690002   30.108000       1.0000      1.0079
   75   2 H    1       3.350000   22.000000   30.338001       1.0000      1.0079
   76   1 O    8      -1.330000   16.360001   35.208001       6.0000     15.9994
   77   2 H    1      -0.530000   16.110001   34.688001       1.0000      1.0079
   78   2 H    1      -1.790000   16.970001   34.588001       1.0000      1.0079
   79   1 O    8     -25.880001   -9.290000   36.228001       6.0000     15.9994
   80   2 H    1     -26.300001   -9.440001   35.278001       1.0000      1.0079
   81   2 H    1     -25.000000   -8.830000   36.158001       1.0000      1.0079
   82   1 O    8      23.470001  -11.170001   30.118000       6.0000     15.9994
   83   2 H    1      22.670002  -10.920000   29.638001       1.0000      1.0079
   84   2 H    1      23.530003  -12.210001   30.098001       1.0000      1.0079
   85   1 O    8       2.390000   -6.010000   30.048001       6.0000     15.9994
   86   2 H    1       1.590000   -5.660000   30.468001       1.0000      1.0079
   87   2 H    1       2.530000   -5.530000   29.168001       1.0000      1.0079
   88   1 O    8      42.690002   -4.010000   32.928001       6.0000     15.9994
   89   2 H    1      43.690002   -4.000000   33.168001       1.0000      1.0079
   90   2 H    1      42.260002   -3.510000   33.638000       1.0000      1.0079
   91   1 O    8      21.390001   29.980001   32.378002       6.0000     15.9994
   92   2 H    1      20.480001   30.080002   32.778001       1.0000      1.0079
   93   2 H    1      21.520002   30.120001   31.418001       1.0000      1.0079
   94   1 O    8      18.810001  -14.430000   35.808000       6.0000     15.9994
   95   2 H    1      19.340002  -13.640001   35.708001       1.0000      1.0079
   96   2 H    1      18.620001  -14.360001   34.808000       1.0000      1.0079
   97   1 O    8     -27.560001   58.010002   34.148000       6.0000     15.9994
   98   2 H    1     -28.170002   58.460003   33.438001       1.0000      1.0079
   99   2 H    1     -27.170002   58.700005   34.708000       1.0000      1.0079
  100   1 O    8      17.680000   21.070002   35.668001       6.0000     15.9994
  101   2 H    1      17.540001   21.330002   36.608001       1.0000      1.0079
  102   2 H    1      18.510000   20.570002   35.598000       1.0000      1.0079
  103   1 O    8      16.060001   14.940001   30.068000       6.0000     15.9994
  104   2 H    1      16.230000   14.160000   30.698000       1.0000      1.0079
  105   2 H    1      15.260000   14.770001   29.478000       1.0000      1.0079
  106   1 O    8      16.049999   16.460001   37.958001       6.0000     15.9994
  107   2 H    1       7.470000   31.040001   36.968001       1.0000      1.0079
  108   2 H    1      16.760002   17.160000   38.008001       1.0000      1.0079
  109   1 O    8     -32.350002   -2.280000   29.958001       6.0000     15.9994
  110   2 H    1     -32.380001   -1.270000   30.178000       1.0000      1.0079
  111   2 H    1     -31.580002   -2.330000   29.368000       1.0000      1.0079
  112   1 O    8     -43.860001   32.270004   30.918001       6.0000     15.9994
  113   2 H    1     -44.580002   32.780003   30.588001       1.0000      1.0079
  114   2 H    1     -43.860001   31.390001   30.478000       1.0000      1.0079
  115   1 O    8       4.380000   13.060001   35.438001       6.0000     15.9994
  116   2 H    1      20.559999   13.790001   35.638001       1.0000      1.0079
  117   2 H    1       5.060000   13.170000   36.068000       1.0000      1.0079
  118   1 O    8      18.430000   52.160000   33.728001       6.0000     15.9994
  119   2 H    1      19.300001   51.740002   33.508001       1.0000      1.0079
  120   2 H    1      34.980003   51.740002   34.598001       1.0000      1.0079
  121   1 O    8      12.050000   11.090001   39.048000       6.0000     15.9994
  122   2 H    1       3.420000   25.380001   38.178001       1.0000      1.0079
  123   2 H    1      11.430000   10.810001   39.738000       1.0000      1.0079
  124   1 O    8      -0.960000   -2.840000   32.828000       6.0000     15.9994
  125   2 H    1      -0.090000   -3.140000   33.268001       1.0000      1.0079
  126   2 H    1      -1.630000   -3.440000   33.188001       1.0000      1.0079
  127   1 O    8      29.920002  -16.570000   29.998000       6.0000     15.9994
  128   2 H    1      30.250000  -16.890001   29.158000       1.0000      1.0079
  129   2 H    1      29.550001  -17.350002   30.498000       1.0000      1.0079
  130   1 O    8       7.340000  -17.550001   29.158000       6.0000     15.9994
  131   2 H    1       8.210000  -17.300001   29.448000       1.0000      1.0079
  132   2 H    1       6.660000  -16.910002   29.538000       1.0000      1.0079
  133   1 O    8     -21.490002   32.010002   35.438001       6.0000     15.9994
  134   2 H    1     -21.000002   31.320002   34.928001       1.0000      1.0079
  135   2 H    1     -21.180000   32.020000   36.378001       1.0000      1.0079
  136   1 O    8       5.950000   10.420000   36.268001       6.0000     15.9994
  137   2 H    1       5.160000   10.380001   36.888001       1.0000      1.0079
  138   2 H    1       6.700000    9.970000   36.728000       1.0000      1.0079
  139   1 O    8      26.950001    3.710000   37.718000       6.0000     15.9994
  140   2 H    1      27.480001    3.430000   36.968001       1.0000      1.0079
  141   2 H    1      35.980003   18.340000   38.598001       1.0000      1.0079
  142   1 O    8      -7.750000    1.860000   33.108001       6.0000     15.9994
  143   2 H    1      -7.300000    2.690000   32.988001       1.0000      1.0079
  144   2 H    1      -8.260000    1.800000   32.308000       1.0000      1.0079
  145   1 O    8       8.470000   19.540001   29.028001       6.0000     15.9994
  146   2 H    1      -7.500000   19.120001   29.358001       1.0000      1.0079
  147   2 H    1       7.810000   18.890001   29.448000       1.0000      1.0079
  148   1 O    8       3.400000   20.020000   34.718001       6.0000     15.9994
  149   2 H    1       3.900000   19.200001   34.788000       1.0000      1.0079
  150   2 H    1       3.930000   20.620001   34.158000       1.0000      1.0079
  151   1 O    8     -16.310001    8.620001   29.848000       6.0000     15.9994
  152   2 H    1     -16.920000    7.830000   29.868000       1.0000      1.0079
  153   2 H    1     -16.049999    8.780001   28.918001       1.0000      1.0079
  154   1 O    8       5.470000   16.930000   37.608001       6.0000     15.9994
  155   2 H    1       6.350000   16.570000   37.318000       1.0000      1.0079
  156   2 H    1       5.200000   16.480001   38.458000       1.0000      1.0079
  157   1 O    8     -25.730001   27.880001   32.178000       6.0000     15.9994
  158   2 H    1     -26.270000   28.080002   32.958000       1.0000      1.0079
  159   2 H    1     -25.990002   26.990002   31.788001       1.0000      1.0079
  160   1 O    8     -17.370001   11.270000   30.238000       6.0000     15.9994
  161   2 H    1     -16.990002   10.430001   30.628001       1.0000      1.0079
  162   2 H    1     -16.670000   11.710000   29.658000       1.0000      1.0079
  163   1 O    8      -9.990001   -6.880000   35.638001       6.0000     15.9994
  164   2 H    1      -9.840000   -7.770000   36.118000       1.0000      1.0079
  165   2 H    1      -9.640000   -6.110000   36.128002       1.0000      1.0079
  166   1 O    8      33.760002   -8.860001   38.158000       6.0000     15.9994
  167   2 H    1      34.430000   -9.540001   37.828000       1.0000      1.0079
  168   2 H    1      33.900002   -8.710001   39.088001       1.0000      1.0079
  169   1 O    8      28.100002   22.130001   30.208001       6.0000     15.9994
  170   2 H    1      28.330002   21.790001   29.298000       1.0000      1.0079
  171   2 H    1      27.090000   22.369999   30.198000       1.0000      1.0079
  172   1 O    8       3.170000   10.950001   32.588001       6.0000     15.9994
  173   2 H    1       3.960000   10.780001   33.178001       1.0000      1.0079
  174   2 H    1       3.300000   10.590000   31.658000       1.0000      1.0079
  175   1 O    8      14.300001   18.160002   33.538000       6.0000     15.9994
  176   2 H    1      14.840001   18.950001   33.788000       1.0000      1.0079
  177   2 H    1      14.640001   17.870001   32.678001       1.0000      1.0079
  178   1 O    8      -3.400000   65.380005   38.758001       6.0000     15.9994
  179   2 H    1      -2.880000   64.620003   38.508001       1.0000      1.0079
  180   2 H    1      -3.880000   65.610001   37.918001       1.0000      1.0079
  181   1 O    8       4.230000   22.139999   33.228000       6.0000     15.9994
  182   2 H    1       5.130000   22.299999   33.528001       1.0000      1.0079
  183   2 H    1       4.320000   21.890001   32.258001       1.0000      1.0079
  184   1 O    8     -10.350000   19.300001   34.138001       6.0000     15.9994
  185   2 H    1      -9.930000   19.670002   33.268001       1.0000      1.0079
  186   2 H    1     -10.160000   18.370001   34.028001       1.0000      1.0079
  187   1 O    8      -2.270000  -19.850002   39.308000       6.0000     15.9994
  188   2 H    1      -2.440000  -20.820000   39.498000       1.0000      1.0079
  189   2 H    1      -3.160000  -19.420002   39.298002       1.0000      1.0079
  190   1 O    8      -8.900001   37.670002   39.538001       6.0000     15.9994
  191   2 H    1      -9.820001   37.410004   39.418001       1.0000      1.0079
  192   2 H    1      -8.360001   36.980003   40.038001       1.0000      1.0079
  193   1 O    8     -11.480000   10.450001   33.768001       6.0000     15.9994
  194   2 H    1     -11.230000   10.550001   34.738000       1.0000      1.0079
  195   2 H    1     -11.360001    9.550000   33.488000       1.0000      1.0079
  196   1 O    8       5.300000   36.990002   39.128002       6.0000     15.9994
  197   2 H    1      13.240002   23.110001   38.638000       1.0000      1.0079
  198   2 H    1       5.340000   36.220001   38.518001       1.0000      1.0079
  199   1 O    8      18.470001    4.390000   38.288001       6.0000     15.9994
  200   2 H    1      19.190002    3.800000   38.008001       1.0000      1.0079
  201   2 H    1      18.090002    3.830000   39.038001       1.0000      1.0079
  202   1 O    8       4.430000    6.000000   35.358001       6.0000     15.9994
  203   2 H    1       5.070000    5.630000   36.008001       1.0000      1.0079
  204   2 H    1       4.890000    6.630001   34.768001       1.0000      1.0079
  205   1 O    8      12.500000   -4.700000   38.158000       6.0000     15.9994
  206   2 H    1      11.610001   -5.080000   37.978000       1.0000      1.0079
  207   2 H    1      12.490001   -4.020000   38.848001       1.0000      1.0079
  208   1 O    8      19.690001   29.250002   37.368001       6.0000     15.9994
  209   2 H    1      19.320000   28.640001   36.668001       1.0000      1.0079
  210   2 H    1      20.470001   28.870001   37.848001       1.0000      1.0079
  211   1 O    8      27.050001    4.560000   32.848001       6.0000     15.9994
  212   2 H    1      27.650002    4.780000   33.548001       1.0000      1.0079
  213   2 H    1      27.790001    4.220000   32.208000       1.0000      1.0079
  214   1 O    8     -11.110001  -23.860001   37.638002       6.0000     15.9994
  215   2 H    1     -11.360001  -24.630001   38.328002       1.0000      1.0079
  216   2 H    1     -10.120001  -23.720001   37.698001       1.0000      1.0079
  217   1 O    8       6.620001   14.250001   33.588001       6.0000     15.9994
  218   2 H    1       6.990001   13.450001   33.088001       1.0000      1.0079
  219   2 H    1       6.810000   13.970001   34.488000       1.0000      1.0079
  220   1 O    8       6.820001   -9.850000   38.408000       6.0000     15.9994
  221   2 H    1       7.380000   -9.700001   37.638002       1.0000      1.0079
  222   2 H    1      23.220001  -10.660001   38.238000       1.0000      1.0079
  223   1 O    8     -11.060000  -21.709999   33.378000       6.0000     15.9994
  224   2 H    1     -10.100000  -21.820002   33.418001       1.0000      1.0079
  225   2 H    1     -11.340000  -22.270000   32.638000       1.0000      1.0079
  226   1 O    8      10.670000   -1.010000   33.098000       6.0000     15.9994
  227   2 H    1      11.040001   -1.960000   33.108001       1.0000      1.0079
  228   2 H    1       9.810000   -1.060000   32.568000       1.0000      1.0079
  229   1 O    8      -0.910000  -15.330001   38.918001       6.0000     15.9994
  230   2 H    1      -0.180000  -16.000000   38.648000       1.0000      1.0079
  231   2 H    1      -0.750000  -14.500000   38.518001       1.0000      1.0079
  232   1 O    8       1.240000   41.370003   38.828000       6.0000     15.9994
  233   2 H    1       1.160000   41.030003   37.868001       1.0000      1.0079
  234   2 H    1       1.310000   40.600006   39.388000       1.0000      1.0079
  235   1 O    8      11.870001   46.480003   37.158000       6.0000     15.9994
  236   2 H    1      12.180000   46.620003   36.198001       1.0000      1.0079
  237   2 H    1      11.510000   45.540005   37.148002       1.0000      1.0079
  238   1 O    8      18.300001   27.810001   35.378001       6.0000     15.9994
  239   2 H    1      17.440001   27.670002   35.828000       1.0000      1.0079
  240   2 H    1      18.580000   26.970001   34.958001       1.0000      1.0079
  241   1 O    8      27.090000   26.280001   36.148001       6.0000     15.9994
  242   2 H    1      19.630001   40.849998   36.058000       1.0000      1.0079
  243   2 H    1      18.390001   41.779999   35.888001       1.0000      1.0079
  244   1 O    8       8.240001    9.220000   37.038001       6.0000     15.9994
  245   2 H    1       9.120001    9.700001   36.848001       1.0000      1.0079
  246   2 H    1       8.320000    8.930000   37.988000       1.0000      1.0079
  247   1 O    8      -9.390000  -16.630001   39.318000       6.0000     15.9994
  248   2 H    1      -8.810000  -17.260000   39.918001       1.0000      1.0079
  249   2 H    1      -8.880001  -15.760001   39.428001       1.0000      1.0079
  250   1 O    8      11.320001   10.230000   36.728000       6.0000     15.9994
  251   2 H    1      11.770000   10.870000   36.138000       1.0000      1.0079
  252   2 H    1      11.750001    9.370001   36.598001       1.0000      1.0079
  253   1 O    8       3.740000   -3.970000   31.668001       6.0000     15.9994
  254   2 H    1       3.200000   -4.640000   31.188000       1.0000      1.0079
  255   2 H    1       4.480000   -4.460000   32.068001       1.0000      1.0079
  256   1 O    8     -27.900002   24.430000   29.438000       6.0000     15.9994
  257   2 H    1     -27.430000   23.549999   29.518000       1.0000      1.0079
  258   2 H    1     -27.130001   25.070002   29.478000       1.0000      1.0079
  259   1 O    8      -0.600000    6.110000   31.998000       6.0000     15.9994
  260   2 H    1      -0.340000    6.920000   32.608001       1.0000      1.0079
  261   2 H    1       0.140000    5.460000   32.118001       1.0000      1.0079
  262   1 O    8      27.310001   18.000000   30.098001       6.0000     15.9994
  263   2 H    1      28.190002   18.290001   29.728001       1.0000      1.0079
  264   2 H    1      27.240002   17.050001   30.138001       1.0000      1.0079
  265   1 O    8     -17.650002    9.820001   37.038001       6.0000     15.9994
  266   2 H    1     -16.690001    9.800000   37.238000       1.0000      1.0079
  267   2 H    1     -18.130001    9.830000   37.898000       1.0000      1.0079
  268   1 O    8     -20.730001   13.570002   38.878002       6.0000     15.9994
  269   2 H    1     -21.170002   12.600001   39.038001       1.0000      1.0079
  270   2 H    1     -19.760000   13.480000   38.878002       1.0000      1.0079
  271   1 O    8     -13.610001   10.170001   30.068000       6.0000     15.9994
  272   2 H    1     -13.960000    9.220000   30.098001       1.0000      1.0079
  273   2 H    1     -12.700001   10.060000   29.578000       1.0000      1.0079
  274   1 O    8     -24.290001   18.550001   32.668001       6.0000     15.9994
  275   2 H    1     -23.830002   18.550001   31.778000       1.0000      1.0079
  276   2 H    1     -23.520000   18.440001   33.258001       1.0000      1.0079
  277   1 O    8       4.060000  -11.120001   31.798000       6.0000     15.9994
  278   2 H    1       4.040000  -11.970000   32.268001       1.0000      1.0079
  279   2 H    1       5.060000  -10.930000   31.818001       1.0000      1.0079
  280   1 O    8      12.670001   12.160001   35.178001       6.0000     15.9994
  281   2 H    1      13.040000   13.020000   34.918001       1.0000      1.0079
  282   2 H    1      12.640000   11.620001   34.378001       1.0000      1.0079
  283   1 O    8      16.650002    2.140000   36.608001       6.0000     15.9994
  284   2 H    1      16.930000    3.070000   36.828000       1.0000      1.0079
  285   2 H    1      16.430000    2.350000   35.638001       1.0000      1.0079
  286   1 O    8     -18.070000   27.380001   36.678001       6.0000     15.9994
  287   2 H    1      -1.580000   26.490002   36.438001       1.0000      1.0079
  288   2 H    1      -1.300000   27.490002   37.688001       1.0000      1.0079
  289   1 O    8      -8.100000   14.870001   38.478002       6.0000     15.9994
  290   2 H    1      -7.120000   14.820002   38.278001       1.0000      1.0079
  291   2 H    1      -8.430000   15.450001   37.758001       1.0000      1.0079
  292   1 O    8      46.300003    7.900000   36.578000       6.0000     15.9994
  293   2 H    1      45.919998    7.480001   35.748001       1.0000      1.0079
  294   2 H    1      47.220001    8.030001   36.338001       1.0000      1.0079
  295   1 O    8      10.020000   23.500002   37.698001       6.0000     15.9994
  296   2 H    1      10.040001   22.860001   36.888001       1.0000      1.0079
  297   2 H    1       9.720000   22.870003   38.478002       1.0000      1.0079
  298   1 O    8     -19.500000  -34.170002   29.358001       6.0000     15.9994
  299   2 H    1     -18.690001  -33.610001   29.288000       1.0000      1.0079
  300   2 H    1     -19.139999  -35.060001   29.628001       1.0000      1.0079
  301   1 O    8      -5.280000   33.790001   29.378001       6.0000     15.9994
  302   2 H    1      -4.970000   33.180000   30.108000       1.0000      1.0079
  303   2 H    1      -5.000000   34.740002   29.738000       1.0000      1.0079
  304   1 O    8     -29.450001  -13.510000   33.248001       6.0000     15.9994
  305   2 H    1     -30.210001  -14.150001   33.188001       1.0000      1.0079
  306   2 H    1     -11.840000  -14.130001   33.148000       1.0000      1.0079
  307   3 Pt  78       1.810000    0.720000   15.110001      10.0000    195.0840
  308   3 Pt  78       4.510000    0.730000   15.180000      10.0000    195.0840
  309   3 Pt  78       7.330000    0.880000   15.200001      10.0000    195.0840
  310   3 Pt  78      10.140000    0.810000   15.200001      10.0000    195.0840
  311   3 Pt  78      13.030001    0.650000   15.180000      10.0000    195.0840
  312   3 Pt  78      15.760001    0.800000   15.180000      10.0000    195.0840
  313   3 Pt  78       3.170000    3.090000   15.120003      10.0000    195.0840
  314   3 Pt  78       5.980001    3.290000   15.020004      10.0000    195.0840
  315   3 Pt  78       8.740000    3.260000   15.260002      10.0000    195.0840
  316   3 Pt  78      11.560000    3.260000   15.160004      10.0000    195.0840
  317   3 Pt  78      14.380001    3.200000   15.180000      10.0000    195.0840
  318   3 Pt  78       0.280000    3.160000   15.090004      10.0000    195.0840
  319   3 Pt  78       4.480000    5.660000   15.139999      10.0000    195.0840
  320   3 Pt  78       7.270000    5.580000   15.139999      10.0000    195.0840
  321   3 Pt  78      10.020000    5.690000   15.270000      10.0000    195.0840
  322   3 Pt  78      12.980001    5.510000   15.220001      10.0000    195.0840
  323   3 Pt  78      -1.130000    5.650000   15.250004      10.0000    195.0840
  324   3 Pt  78       1.780000    5.610001   15.150002      10.0000    195.0840
  325   3 Pt  78       6.060000    8.000000   15.030003      10.0000    195.0840
  326   3 Pt  78       8.840000    8.110001   15.220001      10.0000    195.0840
  327   3 Pt  78      11.650001    8.060000   15.020004      10.0000    195.0840
  328   3 Pt  78      -2.460000    8.000000   15.200001      10.0000    195.0840
  329   3 Pt  78       0.220000    7.960001   15.260002      10.0000    195.0840
  330   3 Pt  78       3.100000    8.230000   15.180000      10.0000    195.0840
  331   3 Pt  78       7.440000   10.600000   15.040001      10.0000    195.0840
  332   3 Pt  78      10.160000   10.540000   15.000000      10.0000    195.0840
  333   3 Pt  78      -3.860000   10.430001   15.170002      10.0000    195.0840
  334   3 Pt  78      -1.090000   10.490000   15.350002      10.0000    195.0840
  335   3 Pt  78       1.690000   10.580001   15.220001      10.0000    195.0840
  336   3 Pt  78       4.610000   10.600000   15.040001      10.0000    195.0840
  337   3 Pt  78       8.680000   13.050001   15.190002      10.0000    195.0840
  338   3 Pt  78      -5.360000   12.950001   15.170002      10.0000    195.0840
  339   3 Pt  78      -2.580000   12.920000   15.160004      10.0000    195.0840
  340   3 Pt  78       0.240000   13.020000   15.220001      10.0000    195.0840
  341   3 Pt  78       2.990000   12.920000   15.209999      10.0000    195.0840
  342   3 Pt  78       5.910000   12.870001   15.180000      10.0000    195.0840
  343   3 Pt  78       0.300000    1.610000   17.490002      10.0000    195.0840
  344   3 Pt  78       3.070000    1.510000   17.440002      10.0000    195.0840
  345   3 Pt  78       5.900001    1.610000   17.610001      10.0000    195.0840
  346   3 Pt  78       8.540000    1.530000   17.549999      10.0000    195.0840
  347   3 Pt  78      11.380000    1.540000   17.570000      10.0000    195.0840
  348   3 Pt  78      14.270000    1.540000   17.410000      10.0000    195.0840
  349   3 Pt  78       1.630000    3.960000   17.390003      10.0000    195.0840
  350   3 Pt  78       4.550000    3.990000   17.480000      10.0000    195.0840
  351   3 Pt  78       7.320001    4.010000   17.660004      10.0000    195.0840
  352   3 Pt  78      10.030001    3.980000   17.560001      10.0000    195.0840
  353   3 Pt  78      12.900001    3.920000   17.520004      10.0000    195.0840
  354   3 Pt  78      -1.160000    3.980000   17.510002      10.0000    195.0840
  355   3 Pt  78       3.090000    6.520000   17.450001      10.0000    195.0840
  356   3 Pt  78       5.880000    6.470000   17.440002      10.0000    195.0840
  357   3 Pt  78       8.630000    6.480000   17.500000      10.0000    195.0840
  358   3 Pt  78      11.450001    6.460000   17.470001      10.0000    195.0840
  359   3 Pt  78      -2.550000    6.450000   17.580002      10.0000    195.0840
  360   3 Pt  78       0.250000    6.390000   17.580002      10.0000    195.0840
  361   3 Pt  78       4.550000    8.910000   17.420002      10.0000    195.0840
  362   3 Pt  78       7.240000    8.950001   17.400002      10.0000    195.0840
  363   3 Pt  78      10.140000    8.980000   17.350002      10.0000    195.0840
  364   3 Pt  78      -3.900000    8.830000   17.460003      10.0000    195.0840
  365   3 Pt  78      -1.100000    8.830000   17.639999      10.0000    195.0840
  366   3 Pt  78       1.680000    8.930000   17.530003      10.0000    195.0840
  367   3 Pt  78       5.880000   11.340000   17.560001      10.0000    195.0840
  368   3 Pt  78       8.580000   11.400002   17.430000      10.0000    195.0840
  369   3 Pt  78      -5.450000   11.270000   17.440002      10.0000    195.0840
  370   3 Pt  78      -2.600000   11.300000   17.540001      10.0000    195.0840
  371   3 Pt  78       0.250000   11.260000   17.570000      10.0000    195.0840
  372   3 Pt  78       3.180000   11.320001   17.510002      10.0000    195.0840
  373   3 Pt  78       7.300000   13.820001   17.540001      10.0000    195.0840
  374   3 Pt  78      -6.760001   13.690001   17.450001      10.0000    195.0840
  375   3 Pt  78      -3.920000   13.830000   17.520004      10.0000    195.0840
  376   3 Pt  78      -1.260000   13.760000   17.460003      10.0000    195.0840
  377   3 Pt  78       1.610000   13.740001   17.570000      10.0000    195.0840
  378   3 Pt  78       4.410000   13.680000   17.639999      10.0000    195.0840
  379   3 Pt  78      -8.310000   14.540001   19.800003      10.0000    195.0840
  380   3 Pt  78      -5.430000   14.530001   19.710003      10.0000    195.0840
  381   3 Pt  78      -2.600000   14.390000   19.840004      10.0000    195.0840
  382   3 Pt  78       0.200000   14.400001   19.850002      10.0000    195.0840
  383   3 Pt  78       2.970000   14.450001   19.910004      10.0000    195.0840
  384   3 Pt  78       5.820000   14.560001   19.900002      10.0000    195.0840
  385   3 Pt  78       1.580000    2.420000   19.810001      10.0000    195.0840
  386   3 Pt  78       4.430000    2.420000   19.910004      10.0000    195.0840
  387   3 Pt  78       7.200000    2.300000   19.940002      10.0000    195.0840
  388   3 Pt  78      10.040001    2.200000   19.900002      10.0000    195.0840
  389   3 Pt  78      12.880001    2.290000   19.880001      10.0000    195.0840
  390   3 Pt  78      -1.290000    2.370000   19.860001      10.0000    195.0840
  391   3 Pt  78       3.080000    4.780000   19.820000      10.0000    195.0840
  392   3 Pt  78       5.870000    4.790000   19.820000      10.0000    195.0840
  393   3 Pt  78       8.700001    4.850000   19.950001      10.0000    195.0840
  394   3 Pt  78      11.390000    4.800000   19.910004      10.0000    195.0840
  395   3 Pt  78      -2.640000    4.770000   19.820000      10.0000    195.0840
  396   3 Pt  78       0.250000    4.730000   19.790001      10.0000    195.0840
  397   3 Pt  78       4.460000    7.320001   19.820000      10.0000    195.0840
  398   3 Pt  78       7.210000    7.170000   19.860001      10.0000    195.0840
  399   3 Pt  78      10.010000    7.280001   19.820000      10.0000    195.0840
  400   3 Pt  78      -4.140000    7.190001   19.850002      10.0000    195.0840
  401   3 Pt  78      -1.220000    7.160000   19.889999      10.0000    195.0840
  402   3 Pt  78       1.590000    7.150001   19.840004      10.0000    195.0840
  403   3 Pt  78       5.820000    9.770000   19.840004      10.0000    195.0840
  404   3 Pt  78       8.630000    9.630001   19.710003      10.0000    195.0840
  405   3 Pt  78      -5.400000    9.640000   19.690002      10.0000    195.0840
  406   3 Pt  78      -2.600000    9.550000   19.780003      10.0000    195.0840
  407   3 Pt  78       0.290000    9.650001   19.930000      10.0000    195.0840
  408   3 Pt  78       3.010000    9.660000   19.860001      10.0000    195.0840
  409   3 Pt  78       7.200000   12.100000   19.860001      10.0000    195.0840
  410   3 Pt  78      -6.930000   12.020000   19.730003      10.0000    195.0840
  411   3 Pt  78      -4.030000   12.090001   19.810001      10.0000    195.0840
  412   3 Pt  78      -1.270000   12.000000   19.800003      10.0000    195.0840
  413   3 Pt  78       1.550000   12.040001   19.900002      10.0000    195.0840
  414   3 Pt  78       4.340000   12.210001   19.920002      10.0000    195.0840
  415   3 Pt  78       1.580000    0.690000   22.058000      10.0000    195.0840
  416   3 Pt  78       4.400000    0.630000   22.058000      10.0000    195.0840
  417   3 Pt  78       7.190001    0.640000   22.128000      10.0000    195.0840
  418   3 Pt  78       9.990001    0.660000   22.178000      10.0000    195.0840
  419   3 Pt  78      12.790001    0.610000   22.218000      10.0000    195.0840
  420   3 Pt  78      15.520000    0.710000   22.208000      10.0000    195.0840
  421   3 Pt  78       3.060000    3.040000   22.128000      10.0000    195.0840
  422   3 Pt  78       5.750000    3.160000   22.178000      10.0000    195.0840
  423   3 Pt  78       8.520000    3.210000   22.208000      10.0000    195.0840
  424   3 Pt  78      11.350001    3.130000   22.178000      10.0000    195.0840
  425   3 Pt  78      14.270000    3.110000   22.218000      10.0000    195.0840
  426   3 Pt  78       0.190000    3.020000   22.128000      10.0000    195.0840
  427   3 Pt  78       4.360000    5.600000   22.158000      10.0000    195.0840
  428   3 Pt  78       7.210000    5.680000   22.188000      10.0000    195.0840
  429   3 Pt  78       9.900001    5.630000   22.208000      10.0000    195.0840
  430   3 Pt  78      12.680000    5.560000   22.098000      10.0000    195.0840
  431   3 Pt  78      -1.220000    5.530000   22.048000      10.0000    195.0840
  432   3 Pt  78       1.620000    5.460000   22.088000      10.0000    195.0840
  433   3 Pt  78       5.780000    8.060000   22.198000      10.0000    195.0840
  434   3 Pt  78       8.600000    8.100000   22.168000      10.0000    195.0840
  435   3 Pt  78      11.430000    8.030001   22.158000      10.0000    195.0840
  436   3 Pt  78      -2.660000    7.930000   22.088000      10.0000    195.0840
  437   3 Pt  78       0.190000    7.940001   22.138000      10.0000    195.0840
  438   3 Pt  78       3.030000    8.040000   22.148000      10.0000    195.0840
  439   3 Pt  78       7.200000   10.530001   22.088000      10.0000    195.0840
  440   3 Pt  78      10.010000   10.400001   22.078000      10.0000    195.0840
  441   3 Pt  78      -4.030000   10.410000   22.078000      10.0000    195.0840
  442   3 Pt  78      -1.340000   10.300001   22.168000      10.0000    195.0840
  443   3 Pt  78       1.530000   10.470000   22.238000      10.0000    195.0840
  444   3 Pt  78       4.350000   10.410000   22.138000      10.0000    195.0840
  445   3 Pt  78       8.580000   12.970000   22.158000      10.0000    195.0840
  446   3 Pt  78      -5.550000   12.830001   21.938000      10.0000    195.0840
  447   3 Pt  78      -2.680000   12.800001   22.178000      10.0000    195.0840
  448   3 Pt  78       0.050000   12.790001   22.118000      10.0000    195.0840
  449   3 Pt  78       2.820000   12.820001   22.258000      10.0000    195.0840
  450   3 Pt  78       5.740000   12.860001   22.188000      10.0000    195.0840
  451   3 Pt  78       0.070000    1.360000   24.408000      10.0000    195.0840
  452   3 Pt  78       2.980000    1.380000   24.308000      10.0000    195.0840
  453   3 Pt  78       5.660000    1.460000   24.358000      10.0000    195.0840
  454   3 Pt  78       8.460000    1.560000   24.478000      10.0000    195.0840
  455   3 Pt  78      11.250000    1.500000   24.478000      10.0000    195.0840
  456   3 Pt  78      14.200001    1.470000   24.538000      10.0000    195.0840
  457   3 Pt  78       1.610000    3.860000   24.268000      10.0000    195.0840
  458   3 Pt  78       4.380000    3.960000   24.418000      10.0000    195.0840
  459   3 Pt  78       7.080000    3.970000   24.558000      10.0000    195.0840
  460   3 Pt  78       9.910001    3.890000   24.538000      10.0000    195.0840
  461   3 Pt  78      12.800001    3.860000   24.488000      10.0000    195.0840
  462   3 Pt  78      -1.240000    3.910000   24.438000      10.0000    195.0840
  463   3 Pt  78       2.840000    6.410000   24.418000      10.0000    195.0840
  464   3 Pt  78       5.750000    6.340000   24.438000      10.0000    195.0840
  465   3 Pt  78       8.580000    6.370000   24.678000      10.0000    195.0840
  466   3 Pt  78      11.300000    6.320000   24.528000      10.0000    195.0840
  467   3 Pt  78      -2.760000    6.160001   24.418000      10.0000    195.0840
  468   3 Pt  78       0.030000    6.250000   24.358000      10.0000    195.0840
  469   3 Pt  78       4.330000    8.720000   24.488000      10.0000    195.0840
  470   3 Pt  78       7.180000    8.840000   24.418000      10.0000    195.0840
  471   3 Pt  78      10.030001    8.740000   24.488000      10.0000    195.0840
  472   3 Pt  78      -4.010000    8.700001   24.458000      10.0000    195.0840
  473   3 Pt  78      -1.360000    8.570001   24.478000      10.0000    195.0840
  474   3 Pt  78       1.430000    8.730000   24.458000      10.0000    195.0840
  475   3 Pt  78       5.740000   11.200000   24.438000      10.0000    195.0840
  476   3 Pt  78       8.690001   11.140001   24.488000      10.0000    195.0840
  477   3 Pt  78      -5.590000   11.160001   24.388000      10.0000    195.0840
  478   3 Pt  78      -2.650000   11.040001   24.488000      10.0000    195.0840
  479   3 Pt  78       0.030000   11.240001   24.518000      10.0000    195.0840
  480   3 Pt  78       2.900000   11.190001   24.478000      10.0000    195.0840
  481   3 Pt  78       7.210000   13.630000   24.548000      10.0000    195.0840
  482   3 Pt  78      -6.990001   13.610001   24.448000      10.0000    195.0840
  483   3 Pt  78      -4.210001   13.490001   24.418000      10.0000    195.0840
  484   3 Pt  78      -1.330000   13.570002   24.348000      10.0000    195.0840
  485   3 Pt  78       1.440000   13.670001   24.518000      10.0000    195.0840
  486   3 Pt  78       4.450000   13.640001   24.558000      10.0000    195.0840
  487   3 Pt  78      -8.350000   14.480001   26.838000      10.0000    195.0840
  488   3 Pt  78      -5.430000   14.470000   26.788000      10.0000    195.0840
  489   3 Pt  78      -2.660000   14.390000   26.678001      10.0000    195.0840
  490   3 Pt  78       0.240000   14.600000   26.798000      10.0000    195.0840
  491   3 Pt  78       2.930000   14.370001   26.878001      10.0000    195.0840
  492   3 Pt  78       5.760000   14.500000   26.888000      10.0000    195.0840
  493   3 Pt  78       1.450000    2.230000   26.778000      10.0000    195.0840
  494   3 Pt  78       4.280000    2.220000   26.788000      10.0000    195.0840
  495   3 Pt  78       7.010000    2.230000   26.908000      10.0000    195.0840
  496   3 Pt  78       9.950001    2.250000   26.758000      10.0000    195.0840
  497   3 Pt  78      12.780001    2.130000   26.828000      10.0000    195.0840
  498   3 Pt  78      -1.260000    2.180000   26.828000      10.0000    195.0840
  499   3 Pt  78       2.910000    4.580000   26.638000      10.0000    195.0840
  500   3 Pt  78       5.660000    4.710000   26.848000      10.0000    195.0840
  501   3 Pt  78       8.410000    4.640000   26.918001      10.0000    195.0840
  502   3 Pt  78      11.280001    4.720000   26.828000      10.0000    195.0840
  503   3 Pt  78      -2.760000    4.650001   26.738000      10.0000    195.0840
  504   3 Pt  78       0.090000    4.530000   26.868000      10.0000    195.0840
  505   3 Pt  78       4.170000    6.970000   26.808000      10.0000    195.0840
[...]
 flops    13 x     5 x   100           4401540000       0.0%    100.0%      0.0%
 flops    13 x    13 x    96           5059454400       0.0%    100.0%      0.0%
 flops    13 x    13 x   100           5270265000       0.0%    100.0%      0.0%
 flops    13 x    32 x     5           5289939200       0.0%    100.0%      0.0%
 flops     5 x    32 x    13           5289939200       0.0%    100.0%      0.0%
 flops    13 x    32 x    13           6268694016       0.0%    100.0%      0.0%
 flops    20 x    13 x    96           7029285120       0.0%    100.0%      0.0%
 flops    13 x    20 x    96           7062232320       0.0%    100.0%      0.0%
 flops    20 x    13 x   100           7322172000       0.0%    100.0%      0.0%
 flops    13 x    20 x   100           7356492000       0.0%    100.0%      0.0%
 flops     5 x    20 x    96           7533504000       0.0%    100.0%      0.0%
 flops    20 x     5 x    96           7563916800       0.0%    100.0%      0.0%
 flops     5 x    20 x   100           7847400000       0.0%    100.0%      0.0%
 flops    20 x     5 x   100           7879080000       0.0%    100.0%      0.0%
 flops    13 x    32 x    20           8824990720       0.0%    100.0%      0.0%
 flops    20 x    32 x    13           8824990720       0.0%    100.0%      0.0%
 flops     5 x    32 x    20           9454950400       0.0%    100.0%      0.0%
 flops    20 x    32 x     5           9454950400       0.0%    100.0%      0.0%
 flops    20 x    20 x    96          59396198400       0.0%    100.0%      0.0%
 flops     5 x     5 x   128          61820774400       0.0%    100.0%      0.0%
 flops    20 x    20 x   100          61871040000       0.0%    100.0%      0.0%
 flops    20 x    32 x    20          74052403200       0.0%    100.0%      0.0%
 flops     5 x    13 x   128          78798720000       0.0%    100.0%      0.0%
 flops    13 x     5 x   128          78875596800       0.0%    100.0%      0.0%
 flops    13 x    13 x   128          94443148800       0.0%    100.0%      0.0%
 flops    20 x    13 x   128         131213322240       0.0%    100.0%      0.0%
 flops    13 x    20 x   128         131828336640       0.0%    100.0%      0.0%
 flops     5 x    20 x   128         140625408000       0.0%    100.0%      0.0%
 flops    20 x     5 x   128         141193113600       0.0%    100.0%      0.0%
 flops    20 x    20 x   128        1108729036800       0.0%    100.0%      0.0%
 flops inhomo. stacks                           0       0.0%      0.0%      0.0%
 flops total                         2.314580E+12       0.0%    100.0%      0.0%
 flops max/rank                     21.732186E+09       0.0%    100.0%      0.0%
 matmuls inhomo. stacks                         0       0.0%      0.0%      0.0%
 matmuls total                           66649608       0.0%    100.0%      0.0%
 number of processed stacks                630280       0.0%    100.0%      0.0%
 average stack size                                     0.0     105.7       0.0
 marketing flops                     4.718966E+12
 -------------------------------------------------------------------------------
 # multiplications                             34
 max memory usage/rank               1.603125E+09
 # max total images/rank                        2
 # max 3D layers                                1
 # MPI messages exchanged                  126208
 MPI messages size (bytes):
  total size                        81.689272E+09
  min size                         278.784000E+03
  max size                           2.379800E+06
  average size                     647.259062E+03
 MPI breakdown and total messages size (bytes):
             size <=      128                   0                        0
       128 < size <=     8192                   0                        0
      8192 < size <=    32768                   0                        0
     32768 < size <=   131072                   0                        0
    131072 < size <=  4194304              126208              81689273952
   4194304 < size <= 16777216                   0                        0
  16777216 < size                               0                        0
 -------------------------------------------------------------------------------

 *** WARNING in dbcsr_mm.F:290 :: Using a non-square number of MPI ranks ***
 *** might lead to poor performance. Used ranks: 128 Suggested: 121 256  ***

 -------------------------------------------------------------------------------
 -                                                                             -
 -                      DBCSR MESSAGE PASSING PERFORMANCE                      -
 -                                                                             -
 -------------------------------------------------------------------------------
 ROUTINE             CALLS      AVE VOLUME [Bytes]
 MP_Bcast               46                     12.
 MP_Allreduce          341                     13.
 MP_Alltoall           945                 584441.
 MP_ISend             2176                 307603.
 MP_IRecv             2176                 301267.
 -------------------------------------------------------------------------------

 -------------------------------------------------------------------------------
 -                                                                             -
 -                                DBM STATISTICS                               -
 -                                                                             -
 -------------------------------------------------------------------------------
    M  x    N  x    K                                          COUNT     PERCENT
 -------------------------------------------------------------------------------

 -------------------------------------------------------------------------------
 -                                                                             -
 -                                GRID STATISTICS                              -
 -                                                                             -
 -------------------------------------------------------------------------------
 LP    KERNEL             BACKEND                              COUNT     PERCENT
 4     collocate general  REF                               13047200      21.62%
 4     integrate general  REF                               12933607      21.43%
 3     collocate general  REF                                9412224      15.59%
 3     integrate general  REF                                9355093      15.50%
 2     collocate general  REF                                7584032      12.57%
 2     integrate general  REF                                7347031      12.17%
 5     integrate general  REF                                 407725       0.68%
 0     collocate general  REF                                 133632       0.22%
 0     integrate general  REF                                  66816       0.11%
 1     integrate general  REF                                  66816       0.11%
 -------------------------------------------------------------------------------

 MEMORY| Estimated peak process memory [MiB]                                1789

 -------------------------------------------------------------------------------
 ----                             MULTIGRID INFO                            ----
 -------------------------------------------------------------------------------
 count for grid        1:        1100977          cutoff [a.u.]          200.00
 count for grid        2:        1096317          cutoff [a.u.]           66.67
 count for grid        3:         723442          cutoff [a.u.]           22.22
 count for grid        4:         563457          cutoff [a.u.]            7.41
 total gridlevel count  :        3484193

 -------------------------------------------------------------------------------
 -                                                                             -
 -                         MESSAGE PASSING PERFORMANCE                         -
 -                                                                             -
 -------------------------------------------------------------------------------

 ROUTINE             CALLS      AVE VOLUME [Bytes]
 MP_Group                4
 MP_Bcast             2196                 308124.
 MP_Allreduce         3257                  33661.
 MP_Sync                70
 MP_Alltoall          1942               16768578.
 MP_SendRecv           508                   6318.
 MP_ISendRecv        16256                  61740.
 MP_Wait             28916
 MP_comm_split          33
 MP_ISend            11936                 256234.
 MP_IRecv            11936                 256234.
 MP_Recv               124                1706496.
 MP_Write_All            3                1797408.
 -------------------------------------------------------------------------------


 -------------------------------------------------------------------------------
 -                                                                             -
 -                           R E F E R E N C E S                               -
 -                                                                             -
 -------------------------------------------------------------------------------
 
 CP2K version 2022.1, the CP2K developers group (2022).
 CP2K is freely available from https://www.cp2k.org/ .

 Kuehne,Thomas D.; Iannuzzi,Marcella; Del Ben,Mauro;
 Rybkin,Vladimir V.; Seewald,Patrick; Stein,Frederick; Laino,Teodoro;
 Khaliullin,Rustam Z.; Schuett,Ole; Schiffmann,Florian; Golze,Dorothea;
 Wilhelm,Jan; Chulkov,Sergey; Bani-Hashemian,Mohammad Hossein;
 Weber,Valery; Borstnik,Urban; Taillefumier,Mathieu;
 Jakobovits,Alice Shoshana; Lazzaro,Alfio; Pabst,Hans; Mueller,Tiziano;
 Schade,Robert; Guidon,Manuel; Andermatt,Samuel; Holmberg,Nico;
 Schenter,Gregory K.; Hehn,Anna; Bussy,Augustin; Belleflamme,Fabian;
 Tabacchi,Gloria; Gloess,Andreas; Lass,Michael; Bethune,Iain;
 Mundy,Christopher J.; Plessl,Christian; Watkins,Matt;
 VandeVondele,Joost; Krack,Matthias; Hutter,Juerg. 
 The Journal of Chemical Physics, 152 (19), (2020). 
 CP2K: An electronic structure and molecular dynamics software package -
 Quickstep: Efficient and accurate electronic structure calculations.
 https://doi.org/10.1063/5.0007045

 Goerigk, Lars; Hansen, Andreas; Bauer, Christoph; Ehrlich, Stephan;
 Najibi, Asim; Grimme, Stefan. , 19 (48), (2017). 
 A look at the density functional theory zoo with the advanced GMTKN55 database
 for general main group thermochemistry, kinetics and noncovalent interactions.
 https://doi.org/10.1039/C7CP04913G

 Bani-Hashemian, MH; Bruck, S; Luisier, M; VandeVondele, J. 
 JOURNAL OF CHEMICAL PHYSICS, 144 (4), 044113 (2016). 
 A generalized Poisson solver for first-principles device simulations.
 https://doi.org/10.1063/1.4940796

 Schuett, Ole; Messmer, Peter; Hutter, Juerg; VandeVondele, Joost. 
 Electronic Structure Calculations on Graphics Processing Units, John
 Wiley & Sons, Ltd, 173-190 (2016). 
 GPU-Accelerated Sparse Matrix-Matrix Multiplication for
 Linear Scaling Density Functional Theory.
 https://doi.org/10.1002/9781118670712.ch8

 Heinecke, A; Henry, G; Hutchinson, M; Pabst, H. 
 Proceedings of Intl. Supercomputing Conference, 981-991 (2016). 
 LIBXSMM: Accelerating Small Matrix Multiplications
 by Runtime Code Generation.
 https://doi.org/10.1109/SC.2016.83

 Borstnik, U; VandeVondele, J; Weber, V; Hutter, J. 
 PARALLEL COMPUTING, 40 (5-6), 47-58 (2014). 
 Sparse matrix multiplication: The distributed block-compressed sparse
 row library.
 https://doi.org/10.1016/j.parco.2014.03.012

 Hutter, J; Iannuzzi, M; Schiffmann, F; VandeVondele, J. 
 WIREs Comput Mol Sci., 4 (1), 15-25 (2014). 
 CP2K: atomistic simulations of condensed matter systems.
 https://doi.org/10.1002/wcms.1159

 Marek, A; Blum, V; Johanni, R; Havu, V; Lang, B; Auckenthaler, T;
 Heinecke, A; Bungartz, H; Lederer, H. 
 Journal of Physics: Condensed Matter, 26 (21), (2014). 
 The ELPA library: scalable parallel eigenvalue solutions for
 electronic structure
 theory and computational science.
 https://doi.org/10.1088/0953-8984/26/21/213201

 Grimme, S; Ehrlich, S; Goerigk, L. 
 JOURNAL OF COMPUTATIONAL CHEMISTRY, 32, 1456 (2011). 
 Effect of the damping function in dispersion corrected density functional theory.
 https://doi.org/10.1002/jcc.21759

 Grimme, S; Antony, J; Ehrlich, S; Krieg, H. 
 JOURNAL OF CHEMICAL PHYSICS, 132 (15), 154104 (2010). 
 A consistent and accurate ab initio parametrization of density
 functional dispersion correction (DFT-D) for the 94 elements H-Pu.
 https://doi.org/10.1063/1.3382344

 VandeVondele, J; Hutter, J. 
 JOURNAL OF CHEMICAL PHYSICS, 127 (11), 114105 (2007). 
 Gaussian basis sets for accurate calculations on molecular systems in
 gas and condensed phases.
 https://doi.org/10.1063/1.2770708

 Krack, M. 
 THEORETICAL CHEMISTRY ACCOUNTS, 114 (1-3), 145-152 (2005). 
 Pseudopotentials for H to Kr optimized for gradient-corrected
 exchange-correlation functionals.
 https://doi.org/10.1007/s00214-005-0655-y

 VandeVondele, J; Krack, M; Mohamed, F; Parrinello, M; Chassaing, T;
 Hutter, J. COMPUTER PHYSICS COMMUNICATIONS, 167 (2), 103-128 (2005). 
 QUICKSTEP: Fast and accurate density functional calculations using a
 mixed Gaussian and plane waves approach.
 https://doi.org/10.1016/j.cpc.2004.12.014

 Frigo, M; Johnson, SG. 
 PROCEEDINGS OF THE IEEE, 93 (2), 216-231 (2005). 
 The design and implementation of FFTW3.
 https://doi.org/10.1109/JPROC.2004.840301

 Hartwigsen, C; Goedecker, S; Hutter, J. 
 PHYSICAL REVIEW B, 58 (7), 3641-3662 (1998). 
 Relativistic separable dual-space Gaussian pseudopotentials from H to Rn.
 https://doi.org/10.1103/PhysRevB.58.3641

 Lippert, G; Hutter, J; Parrinello, M. 
 MOLECULAR PHYSICS, 92 (3), 477-487 (1997). 
 A hybrid Gaussian and plane wave density functional scheme.
 https://doi.org/10.1080/002689797170220

 Perdew, JP; Burke, K; Ernzerhof, M. 
 PHYSICAL REVIEW LETTERS, 77 (18), 3865-3868 (1996). 
 Generalized gradient approximation made simple.
 https://doi.org/10.1103/PhysRevLett.77.3865

 Goedecker, S; Teter, M; Hutter, J. 
 PHYSICAL REVIEW B, 54 (3), 1703-1710 (1996). 
 Separable dual-space Gaussian pseudopotentials.
 https://doi.org/10.1103/PhysRevB.54.1703


 -------------------------------------------------------------------------------
 -                                                                             -
 -                                T I M I N G                                  -
 -                                                                             -
 -------------------------------------------------------------------------------
 SUBROUTINE                       CALLS  ASD         SELF TIME        TOTAL TIME
                                MAXIMUM       AVERAGE  MAXIMUM  AVERAGE  MAXIMUM
 CP2K                                 1  1.0    0.422    0.436  230.213  230.216
 qs_forces                            1  2.0    0.002    0.003  229.425  229.426
 qs_energies                          1  3.0    0.000    0.000  223.304  223.311
 scf_env_do_scf                       1  4.0    0.000    0.000  214.186  214.332
 scf_env_do_scf_inner_loop           31  5.0    0.002    0.005  214.182  214.328
 rebuild_ks_matrix                   32  6.9    0.000    0.000  115.543  115.571
 qs_ks_build_kohn_sham_matrix        32  7.9    0.005    0.006  115.543  115.571
 qs_ks_update_qs_env                 31  6.0    0.000    0.000  111.497  111.524
 pw_transfer                       1668 12.2    0.122    0.159   72.148   73.541
 fft_wrap_pw1pw2                   1668 13.2    0.016    0.045   72.026   73.387
 fft_wrap_pw1pw2_200               1476 14.4    4.902    5.775   71.043   72.365
 qs_scf_new_mos                      31  6.0    0.002    0.006   61.920   62.005
 pw_poisson_solve                    32  8.9    0.003    0.007   61.963   61.981
 fft3d_ps                          1668 15.2   20.955   23.295   57.858   59.910
 eigensolver                         31  7.0    0.003    0.004   58.495   58.663
 implicit_poisson_solver_mixed_      32  9.9    1.318    1.598   58.562   58.610
 cp_fm_diag_elpa                     33  8.1    0.000    0.001   41.430   41.528
 derive_fft                         192 12.1    0.011    0.014   41.039   41.131
 cp_fm_redistribute_end              33  9.1    5.500   41.010    5.578   41.056
 cp_fm_diag_elpa_base                33  9.0   34.922   40.083   35.278   40.459
 mp_alltoall_z22v                  1668 17.2   30.770   37.888   30.770   37.888
 qs_rho_update_rho_low               32  6.0    0.000    0.000   36.712   36.721
 calculate_rho_elec                  32  7.0    0.062    0.079   36.712   36.721
 sum_up_and_integrate                32  8.9    0.173    0.222   36.039   36.077
 integrate_v_rspace                  32  9.9    0.001    0.002   35.866   35.957
 apply_P_operator                   160 11.1    0.854    0.942   35.078   35.164
 grid_collocate_task_list            32  8.0   23.805   29.094   23.805   29.094
 grid_integrate_task_list            32 10.9   22.167   26.395   22.167   26.395
 x_to_yz                            961 16.4    4.095    5.262   23.470   24.323
 rs_pw_transfer                     260 10.4    0.003    0.004   16.194   20.602
 cp_fm_triangular_multiply           93  8.0   18.578   18.784   18.578   18.784
 yz_to_x                            515 16.4    1.404    1.615   12.678   17.336
 density_rs2pw                       32  8.0    0.002    0.002   12.155   16.574
 qs_vxc_create                       32  8.9    0.001    0.001   15.697   15.888
 xc_vxc_pw_create                    32  9.9    0.274    0.336   15.696   15.888
 xc_pw_derive                       192 11.9    0.003    0.003   11.057   12.230
 rs_pw_transfer_RS2PW_200            34  9.9    2.230    2.460    7.431   11.849
 mp_waitany                       11936 12.3    7.266   11.805    7.266   11.805
 apply_poisson_operator_fft          32 10.9    0.000    0.001   10.351   10.526
 apply_inv_laplace_operator_fft      98 11.6    0.246    0.295    9.392    9.733
 mp_alltoall_d11v                   470 10.3    5.619    9.651    5.619    9.651
 potential_pw2rs                     32 10.9    0.009    0.010    9.057    9.125
 rs_gather_matrices                  32 10.9    0.040    0.052    4.630    8.702
 xc_pw_divergence                    32 10.9    0.001    0.002    7.450    8.357
 xc_rho_set_and_dset_create          32 10.9    0.159    0.190    7.693    8.166
 ps_implicit_compute_error_fft       64 10.9    0.402    0.517    6.946    7.426
 ps_implicit_compute_veps            32 10.9    0.186    0.219    7.003    7.115
 pw_scatter_p                      1057 15.3    5.895    6.850    5.895    6.850
 scf_post_calculation_gpw             1  4.0    0.000    0.001    5.674    5.679
 write_available_results              1  5.0    0.000    0.000    5.673    5.679
 rs_pw_transfer_PW2RS_200            34 12.6    2.578    2.695    5.337    5.473
 pw_derive                          768 13.0    4.867    5.209    4.867    5.209
 gspace_mixing                       30  6.0    0.057    0.070    5.024    5.024
 -------------------------------------------------------------------------------

 The number of warnings for this run is : 1
 
 -------------------------------------------------------------------------------
  **** **** ******  **  PROGRAM ENDED AT                 2023-12-03 05:45:31.477
 ***** ** ***  *** **   PROGRAM RAN ON                                     cu001
 **    ****   ******    PROGRAM RAN BY                                     jxzhu
 ***** **    ** ** **   PROGRAM PROCESS ID                                 29846
  **** **  *******  **  PROGRAM STOPPED IN /public/home/jxzhu/tmp_calc/807d5ee60
                                           8ab2a008cf1b4e3aa4b083fbeb94155/calc/
                                           002800.000/search_lo.000000
