 DBCSR| CPU Multiplication driver                                           XSMM
 DBCSR| Multrec recursion limit                                              512
 DBCSR| Multiplication stack size                                           1000
 DBCSR| Maximum elements for images                                    UNLIMITED
 DBCSR| Multiplicative factor virtual images                                   1
 DBCSR| Use multiplication densification                                       T
 DBCSR| Multiplication size stacks                                             3
 DBCSR| Use memory pool for CPU allocation                                     F
 DBCSR| Number of 3D layers                                               SINGLE
 DBCSR| Use MPI memory allocation                                              F
 DBCSR| Use RMA algorithm                                                      F
 DBCSR| Use Communication thread                                               T
 DBCSR| Communication thread load                                             87
 DBCSR| MPI: My node id                                                        0
 DBCSR| MPI: Number of nodes                                                  32
 DBCSR| OMP: Current number of threads                                         1
 DBCSR| OMP: Max number of threads                                             1
 DBCSR| Split modifier for TAS multiplication algorithm                  1.0E+00


  **** **** ******  **  PROGRAM STARTED AT               2023-12-03 02:33:33.818
 ***** ** ***  *** **   PROGRAM STARTED ON                                 cu042
 **    ****   ******    PROGRAM STARTED BY                                 jxzhu
 ***** **    ** ** **   PROGRAM PROCESS ID                                  7374
  **** **  *******  **  PROGRAM STARTED IN /public/home/jxzhu/tmp_calc/04c0855f9
                                           8753fac23fde4df51ba20f3741a9e9a/calc/
                                           task.001.000006

 CP2K| version string:                                       CP2K version 2022.1
 CP2K| source code revision number:                                  git:2caeb6f
 CP2K| cp2kflags: omp libint fftw3 libxc elpa parallel mpi3 scalapack cosma xsmm
 CP2K|             plumed2 spglib mkl sirius libvori libbqb
 CP2K| is freely available from                            https://www.cp2k.org/
 CP2K| Program compiled at                           Mon Jul 3 17:37:06 CST 2023
 CP2K| Program compiled on                                                 mu003
 CP2K| Program compiled for                                                local
 CP2K| Data directory path                             /public/home/jxzhu/basis/
 CP2K| Input file name                                                 input.inp
 
 GLOBAL| Force Environment number                                              1
 GLOBAL| Basis set file name                                        BASIS_MOLOPT
 GLOBAL| Potential file name                                      GTH_POTENTIALS
 GLOBAL| MM Potential file name                                     MM_POTENTIAL
 GLOBAL| Coordinate file name                                          coord.xyz
 GLOBAL| Method name                                                        CP2K
 GLOBAL| Project name                                                       cp2k
 GLOBAL| Run type                                                   ENERGY_FORCE
 GLOBAL| FFT library                                                       FFTW3
 GLOBAL| Diagonalization library                                            ELPA
 GLOBAL| Minimum number of eigenvectors for ELPA usage                        16
 GLOBAL| Orthonormality check for eigenvectors                          DISABLED
 GLOBAL| Matrix multiplication library                                     COSMA
 GLOBAL| All-to-all communication in single precision                          F
 GLOBAL| FFTs using library dependent lengths                                  T
 GLOBAL| Grid backend                                                       AUTO
 GLOBAL| Global print level                                               MEDIUM
 GLOBAL| MPI I/O enabled                                                       T
 GLOBAL| Total number of message passing processes                            32
 GLOBAL| Number of threads for this process                                    1
 GLOBAL| This output is from process                                           0
 GLOBAL| Stack size for threads created by OpenMP (OMP_STACKSIZE)        default
 GLOBAL| CPU model name                 Intel(R) Xeon(R) Gold 6338 CPU @ 2.00GHz
 GLOBAL| CPUID                                                              1003

 MEMORY| system memory details [Kb]
 MEMORY|                        rank 0           min           max       average
 MEMORY| MemTotal            263619172     263619172     263619172     263619172
 MEMORY| MemFree             163200900     163200900     163200900     163200900
 MEMORY| Buffers                  3320          3320          3320          3320
 MEMORY| Cached                9073224       9073224       9073224       9073224
 MEMORY| Slab                  1945120       1945120       1945120       1945120
 MEMORY| SReclaimable           246900        246900        246900        246900
 MEMORY| MemLikelyFree       172524344     172524344     172524344     172524344


 *** Fundamental physical constants (SI units) ***

 *** Literature: B. J. Mohr and B. N. Taylor,
 ***             CODATA recommended values of the fundamental physical
 ***             constants: 2006, Web Version 5.1
 ***             http://physics.nist.gov/constants

 Speed of light in vacuum [m/s]                             2.99792458000000E+08
 Magnetic constant or permeability of vacuum [N/A**2]       1.25663706143592E-06
 Electric constant or permittivity of vacuum [F/m]          8.85418781762039E-12
 Planck constant (h) [J*s]                                  6.62606896000000E-34
 Planck constant (h-bar) [J*s]                              1.05457162825177E-34
 Elementary charge [C]                                      1.60217648700000E-19
 Electron mass [kg]                                         9.10938215000000E-31
 Electron g factor [ ]                                     -2.00231930436220E+00
 Proton mass [kg]                                           1.67262163700000E-27
 Fine-structure constant                                    7.29735253760000E-03
 Rydberg constant [1/m]                                     1.09737315685270E+07
 Avogadro constant [1/mol]                                  6.02214179000000E+23
 Boltzmann constant [J/K]                                   1.38065040000000E-23
 Atomic mass unit [kg]                                      1.66053878200000E-27
 Bohr radius [m]                                            5.29177208590000E-11

 *** Conversion factors ***

 [u] -> [a.u.]                                              1.82288848426455E+03
 [Angstrom] -> [Bohr] = [a.u.]                              1.88972613288564E+00
 [a.u.] = [Bohr] -> [Angstrom]                              5.29177208590000E-01
 [a.u.] -> [s]                                              2.41888432650478E-17
 [a.u.] -> [fs]                                             2.41888432650478E-02
 [a.u.] -> [J]                                              4.35974393937059E-18
 [a.u.] -> [N]                                              8.23872205491840E-08
 [a.u.] -> [K]                                              3.15774647902944E+05
 [a.u.] -> [kJ/mol]                                         2.62549961709828E+03
 [a.u.] -> [kcal/mol]                                       6.27509468713739E+02
 [a.u.] -> [Pa]                                             2.94210107994716E+13
 [a.u.] -> [bar]                                            2.94210107994716E+08
 [a.u.] -> [atm]                                            2.90362800883016E+08
 [a.u.] -> [eV]                                             2.72113838565563E+01
 [a.u.] -> [Hz]                                             6.57968392072181E+15
 [a.u.] -> [1/cm] (wave numbers)                            2.19474631370540E+05
 [a.u./Bohr**2] -> [1/cm]                                   5.14048714338585E+03
 

 CELL_TOP| Volume [angstrom^3]:                                     12686.086737
 CELL_TOP| Vector a [angstrom    16.869     0.000     0.000   |a| =    16.869000
 CELL_TOP| Vector b [angstrom    -8.434    14.609     0.000   |b| =    16.868929
 CELL_TOP| Vector c [angstrom     0.000     0.000    51.478   |c| =    51.477900
 CELL_TOP| Angle (b,c), alpha [degree]:                                90.000000
 CELL_TOP| Angle (a,c), beta  [degree]:                                90.000000
 CELL_TOP| Angle (a,b), gamma [degree]:                               120.000140
 CELL_TOP| Numerically orthorhombic:                                          NO
 
 GENERATE|  Preliminary Number of Bonds generated:                             0
 GENERATE|  Achieved consistency in connectivity generation.

 CELL| Volume [angstrom^3]:                                         12686.086737
 CELL| Vector a [angstrom]:      16.869     0.000     0.000   |a| =    16.869000
 CELL| Vector b [angstrom]:      -8.434    14.609     0.000   |b| =    16.868929
 CELL| Vector c [angstrom]:       0.000     0.000    51.478   |c| =    51.477900
 CELL| Angle (b,c), alpha [degree]:                                    90.000000
 CELL| Angle (a,c), beta  [degree]:                                    90.000000
 CELL| Angle (a,b), gamma [degree]:                                   120.000140
 CELL| Numerically orthorhombic:                                              NO

 CELL_REF| Volume [angstrom^3]:                                     12686.086737
 CELL_REF| Vector a [angstrom    16.869     0.000     0.000   |a| =    16.869000
 CELL_REF| Vector b [angstrom    -8.434    14.609     0.000   |b| =    16.868929
 CELL_REF| Vector c [angstrom     0.000     0.000    51.478   |c| =    51.477900
 CELL_REF| Angle (b,c), alpha [degree]:                                90.000000
 CELL_REF| Angle (a,c), beta  [degree]:                                90.000000
 CELL_REF| Angle (a,b), gamma [degree]:                               120.000140
 CELL_REF| Numerically orthorhombic:                                          NO

 *******************************************************************************
 *******************************************************************************
 **                                                                           **
 **     #####                         ##              ##                      **
 **    ##   ##            ##          ##              ##                      **
 **   ##     ##                       ##            ######                    **
 **   ##     ##  ##   ##  ##   #####  ##  ##   ####   ##    #####    #####    **
 **   ##     ##  ##   ##  ##  ##      ## ##   ##      ##   ##   ##  ##   ##   **
 **   ##  ## ##  ##   ##  ##  ##      ####     ###    ##   ######   ######    **
 **    ##  ###   ##   ##  ##  ##      ## ##      ##   ##   ##       ##        **
 **     #######   #####   ##   #####  ##  ##  ####    ##    #####   ##        **
 **           ##                                                    ##        **
 **                                                                           **
 **                                                ... make the atoms dance   **
 **                                                                           **
 **            Copyright (C) by CP2K developers group (2000-2022)             **
 **                      J. Chem. Phys. 152, 194103 (2020)                    **
 **                                                                           **
 *******************************************************************************

 DFT| Spin restricted Kohn-Sham (RKS) calculation                            RKS
 DFT| Multiplicity                                                             1
 DFT| Number of spin states                                                    1
 DFT| Charge                                                                   0
 DFT| Self-interaction correction (SIC)                                       NO
 DFT| Cutoffs: density                                              1.000000E-10
 DFT|          gradient                                             1.000000E-10
 DFT|          tau                                                  1.000000E-10
 DFT|          cutoff_smoothing_range                               0.000000E+00
 DFT| XC density smoothing                                                  NONE
 DFT| XC derivatives                                                          PW

 FUNCTIONAL| PBE:
 FUNCTIONAL| J.P.Perdew, K.Burke, M.Ernzerhof, Phys. Rev. Letter, vol. 77, n 18,
 FUNCTIONAL|  pp. 3865-3868, (1996){spin unpolarized}                           

 vdW POTENTIAL|                                                   Pair Potential
 vdW POTENTIAL|          DFT-D3 (Version 3.1)
 vdW POTENTIAL|          Potential Form: S. Grimme et al, JCP 132: 154104 (2010)
 vdW POTENTIAL|          Zero Damping
 vdW POTENTIAL|          Cutoff Radius [Bohr]:                             20.00
 vdW POTENTIAL|          s6 Scaling Factor:                               1.0000
 vdW POTENTIAL|          sr6 Scaling Factor:                              1.2170
 vdW POTENTIAL|          s8 Scaling Factor:                               0.7220
 vdW POTENTIAL|          Cutoff for CN calculation:                   0.1000E-05

 QS| Method:                                                                 GPW
 QS| Density plane wave grid type                        NON-SPHERICAL FULLSPACE
 QS| Number of grid levels:                                                    4
 QS| Density cutoff [a.u.]:                                                200.0
 QS| Multi grid cutoff [a.u.]: 1) grid level                               200.0
 QS|                           2) grid level                                66.7
 QS|                           3) grid level                                22.2
 QS|                           4) grid level                                 7.4
 QS| Grid level progression factor:                                          3.0
 QS| Relative density cutoff [a.u.]:                                        20.0
 QS| Interaction thresholds: eps_pgf_orb:                                3.2E-07
 QS|                         eps_filter_matrix:                          0.0E+00
 QS|                         eps_core_charge:                            1.0E-15
 QS|                         eps_rho_gspace:                             1.0E-13
 QS|                         eps_rho_rspace:                             1.0E-13
 QS|                         eps_gvg_rspace:                             3.2E-07
 QS|                         eps_ppl:                                    1.0E-02
 QS|                         eps_ppnl:                                   3.2E-09


 ATOMIC KIND INFORMATION

  1. Atomic kind: Pt                                    Number of atoms:     216

     Orbital Basis Set                      DZVP-A5-Q10-323-MOL-T1-DERIVED_SET-1

       Number of orbital shell sets:                                           1
       Number of orbital shells:                                               6
       Number of primitive Cartesian functions:                                5
       Number of Cartesian basis functions:                                   23
       Number of spherical basis functions:                                   20
       Norm type:                                                              2

       Normalised Cartesian orbitals:

                        Set   Shell   Orbital            Exponent    Coefficient

                          1       1    2s                2.521825       0.177473
                                                         1.453920      -0.063399
                                                         0.614053      -0.407089
                                                         0.232656       0.262254
                                                         0.074788       0.047371

                          1       2    3s                2.521825      -0.049056
                                                         1.453920       0.044904
                                                         0.614053      -0.009756
                                                         0.232656      -0.144709
                                                         0.074788       0.144085

                          1       3    3px               2.521825      -0.317572
                                                         1.453920       0.534826
                                                         0.614053      -0.489458
                                                         0.232656       0.245631
                                                         0.074788       0.018221
                          1       3    3py               2.521825      -0.317572
                                                         1.453920       0.534826
                                                         0.614053      -0.489458
                                                         0.232656       0.245631
                                                         0.074788       0.018221
                          1       3    3pz               2.521825      -0.317572
                                                         1.453920       0.534826
                                                         0.614053      -0.489458
                                                         0.232656       0.245631
                                                         0.074788       0.018221

                          1       4    4dx2              2.521825       3.008522
                                                         1.453920      -1.224251
                                                         0.614053       0.225691
                                                         0.232656       0.125144
                                                         0.074788      -0.015348
                          1       4    4dxy              2.521825       5.210912
                                                         1.453920      -2.120465
                                                         0.614053       0.390909
                                                         0.232656       0.216756
                                                         0.074788      -0.026584
                          1       4    4dxz              2.521825       5.210912
                                                         1.453920      -2.120465
                                                         0.614053       0.390909
                                                         0.232656       0.216756
                                                         0.074788      -0.026584
                          1       4    4dy2              2.521825       3.008522
                                                         1.453920      -1.224251
                                                         0.614053       0.225691
                                                         0.232656       0.125144
                                                         0.074788      -0.015348
                          1       4    4dyz              2.521825       5.210912
                                                         1.453920      -2.120465
                                                         0.614053       0.390909
                                                         0.232656       0.216756
                                                         0.074788      -0.026584
                          1       4    4dz2              2.521825       3.008522
                                                         1.453920      -1.224251
                                                         0.614053       0.225691
                                                         0.232656       0.125144
                                                         0.074788      -0.015348

                          1       5    5dx2              2.521825       0.698026
                                                         1.453920      -1.511486
                                                         0.614053      -0.335394
                                                         0.232656      -0.025564
                                                         0.074788      -0.002699
                          1       5    5dxy              2.521825       1.209017
                                                         1.453920      -2.617970
                                                         0.614053      -0.580920
                                                         0.232656      -0.044277
                                                         0.074788      -0.004674
                          1       5    5dxz              2.521825       1.209017
                                                         1.453920      -2.617970
                                                         0.614053      -0.580920
                                                         0.232656      -0.044277
                                                         0.074788      -0.004674
                          1       5    5dy2              2.521825       0.698026
                                                         1.453920      -1.511486
                                                         0.614053      -0.335394
                                                         0.232656      -0.025564
                                                         0.074788      -0.002699
                          1       5    5dyz              2.521825       1.209017
                                                         1.453920      -2.617970
                                                         0.614053      -0.580920
                                                         0.232656      -0.044277
                                                         0.074788      -0.004674
                          1       5    5dz2              2.521825       0.698026
                                                         1.453920      -1.511486
                                                         0.614053      -0.335394
                                                         0.232656      -0.025564
                                                         0.074788      -0.002699

                          1       6    6dx2              2.521825       0.831079
                                                         1.453920      -0.709226
                                                         0.614053      -0.137351
                                                         0.232656       0.068642
                                                         0.074788       0.011745
                          1       6    6dxy              2.521825       1.439472
                                                         1.453920      -1.228415
                                                         0.614053      -0.237899
                                                         0.232656       0.118891
                                                         0.074788       0.020343
                          1       6    6dxz              2.521825       1.439472
                                                         1.453920      -1.228415
                                                         0.614053      -0.237899
                                                         0.232656       0.118891
                                                         0.074788       0.020343
                          1       6    6dy2              2.521825       0.831079
                                                         1.453920      -0.709226
                                                         0.614053      -0.137351
                                                         0.232656       0.068642
                                                         0.074788       0.011745
                          1       6    6dyz              2.521825       1.439472
                                                         1.453920      -1.228415
                                                         0.614053      -0.237899
                                                         0.232656       0.118891
                                                         0.074788       0.020343
                          1       6    6dz2              2.521825       0.831079
                                                         1.453920      -0.709226
                                                         0.614053      -0.137351
                                                         0.232656       0.068642
                                                         0.074788       0.011745

       Atomic covalent radius [Angstrom]:                                  1.300

       Atomic van der Waals radius [Angstrom]:                             1.750

     GTH Potential information for                                   GTH-PBE-q10

       Description:                       Goedecker-Teter-Hutter pseudopotential
                                           Goedecker et al., PRB 54, 1703 (1996)
                                          Hartwigsen et al., PRB 58, 3641 (1998)
                                                      Krack, TCA 114, 145 (2005)

       Gaussian exponent of the core charge distribution:               1.317676
       Electronic configuration (s p d ...):                           1   0   9

       Parameters of the local part of the GTH pseudopotential:

                          rloc        C1          C2          C3          C4
                        0.616000   11.313635

       Parameters of the non-local part of the GTH pseudopotential:

                   l      r(l)      h(i,j,l)

                   0    0.550904    4.733491   -1.784594
                                   -1.784594    2.303901
                   1    0.674138    2.534798   -1.778066
                                   -1.778066    2.103836
                   2    0.457392   -7.264011    2.558665
                                    2.558665   -2.901253


 MOLECULE KIND INFORMATION


 All atoms are their own molecule, skipping detailed information


 TOTAL NUMBERS AND MAXIMUM NUMBERS

  Total number of            - Atomic kinds:                                   1
                             - Atoms:                                        216
                             - Shell sets:                                   216
                             - Shells:                                      1296
                             - Primitive Cartesian functions:               1080
                             - Cartesian basis functions:                   4968
                             - Spherical basis functions:                   4320

  Maximum angular momentum of- Orbital basis functions:                        2
                             - Local part of the GTH pseudopotential:          0
                             - Non-local part of the GTH pseudopotential:      4


 MODULE QUICKSTEP:  ATOMIC COORDINATES IN angstrom

 Atom  Kind  Element       X           Y           Z          Z(eff)       Mass
    1   1 Pt  78       2.226613    0.584470   19.904935      10.0000    195.0840
    2   1 Pt  78       4.926613    0.444470   19.764932      10.0000    195.0840
    3   1 Pt  78       7.756613    0.454470   19.754934      10.0000    195.0840
    4   1 Pt  78      10.436614    0.554470   19.724935      10.0000    195.0840
    5   1 Pt  78      13.396614    0.674470   19.994932      10.0000    195.0840
    6   1 Pt  78      16.276614    0.624470   19.864934      10.0000    195.0840
    7   1 Pt  78       3.706613    2.904470   19.934934      10.0000    195.0840
    8   1 Pt  78       6.426613    2.854470   19.854932      10.0000    195.0840
    9   1 Pt  78       9.086613    2.974470   19.814935      10.0000    195.0840
   10   1 Pt  78      11.816614    2.994470   19.804937      10.0000    195.0840
   11   1 Pt  78      14.796613    3.084470   19.944936      10.0000    195.0840
   12   1 Pt  78       0.766613    2.994470   19.864934      10.0000    195.0840
   13   1 Pt  78       4.906613    5.364470   19.744935      10.0000    195.0840
   14   1 Pt  78       7.806613    5.354470   19.824933      10.0000    195.0840
   15   1 Pt  78      10.436614    5.394471   19.924932      10.0000    195.0840
   16   1 Pt  78      13.336614    5.364470   19.864934      10.0000    195.0840
   17   1 Pt  78      -0.723387    5.414470   19.984933      10.0000    195.0840
   18   1 Pt  78       2.096613    5.394471   19.864934      10.0000    195.0840
   19   1 Pt  78       6.206614    7.824470   19.704934      10.0000    195.0840
   20   1 Pt  78       9.096613    7.814471   19.994932      10.0000    195.0840
   21   1 Pt  78      12.016613    7.804471   19.964937      10.0000    195.0840
   22   1 Pt  78      -2.103387    7.824470   19.944936      10.0000    195.0840
   23   1 Pt  78       0.596613    7.814471   19.964937      10.0000    195.0840
   24   1 Pt  78       3.406613    7.864470   19.894933      10.0000    195.0840
   25   1 Pt  78       7.606614   10.364470   19.824933      10.0000    195.0840
   26   1 Pt  78      10.466614   10.274471   19.744935      10.0000    195.0840
   27   1 Pt  78      -3.643387   10.264471   19.874936      10.0000    195.0840
   28   1 Pt  78      -0.583387   10.344471   19.894933      10.0000    195.0840
   29   1 Pt  78       2.186613   10.304471   19.964937      10.0000    195.0840
   30   1 Pt  78       4.766613   10.174471   19.714933      10.0000    195.0840
   31   1 Pt  78       9.006613   12.864470   19.754934      10.0000    195.0840
   32   1 Pt  78      -5.013387   12.644471   19.844934      10.0000    195.0840
   33   1 Pt  78      -2.133387   12.654470   19.834936      10.0000    195.0840
   34   1 Pt  78       0.746613   12.744471   19.784932      10.0000    195.0840
   35   1 Pt  78       3.446613   12.784470   19.924932      10.0000    195.0840
   36   1 Pt  78       6.266613   12.764471   19.834936      10.0000    195.0840
   37   1 Pt  78       0.776613    1.314470   22.164934      10.0000    195.0840
   38   1 Pt  78       3.406613    1.184470   22.194932      10.0000    195.0840
   39   1 Pt  78       6.256614    1.274470   22.184934      10.0000    195.0840
   40   1 Pt  78       9.096613    1.244470   22.194932      10.0000    195.0840
   41   1 Pt  78      11.886613    1.224470   22.294935      10.0000    195.0840
   42   1 Pt  78      14.876614    1.264470   22.304937      10.0000    195.0840
   43   1 Pt  78       2.196613    3.814470   22.274934      10.0000    195.0840
   44   1 Pt  78       5.026614    3.744470   22.224935      10.0000    195.0840
   45   1 Pt  78       7.786614    3.714470   22.244935      10.0000    195.0840
   46   1 Pt  78      10.476613    3.674470   22.254934      10.0000    195.0840
   47   1 Pt  78      13.386614    3.644470   22.264932      10.0000    195.0840
   48   1 Pt  78      -0.673387    3.724470   22.274934      10.0000    195.0840
   49   1 Pt  78       3.606613    6.134470   22.234937      10.0000    195.0840
   50   1 Pt  78       6.416614    6.144470   22.084936      10.0000    195.0840
   51   1 Pt  78       9.106614    6.084470   22.294935      10.0000    195.0840
   52   1 Pt  78      11.856615    6.104470   22.194932      10.0000    195.0840
   53   1 Pt  78      -2.073387    6.074470   22.374936      10.0000    195.0840
   54   1 Pt  78       0.786613    6.204470   22.274934      10.0000    195.0840
   55   1 Pt  78       4.826613    8.584470   22.234937      10.0000    195.0840
   56   1 Pt  78       7.706613    8.594471   22.234937      10.0000    195.0840
   57   1 Pt  78      10.456614    8.544470   22.254934      10.0000    195.0840
   58   1 Pt  78      -3.463387    8.574471   22.214933      10.0000    195.0840
   59   1 Pt  78      -0.723387    8.584470   22.324933      10.0000    195.0840
   60   1 Pt  78       2.046613    8.734471   22.234937      10.0000    195.0840
   61   1 Pt  78       6.326613   11.004470   22.114934      10.0000    195.0840
   62   1 Pt  78       9.036614   11.094471   22.174936      10.0000    195.0840
   63   1 Pt  78      -4.943387   11.124470   22.174936      10.0000    195.0840
   64   1 Pt  78      -1.973387   11.004470   22.204934      10.0000    195.0840
   65   1 Pt  78       0.726613   11.104470   22.264932      10.0000    195.0840
   66   1 Pt  78       3.616613   11.054471   22.184934      10.0000    195.0840
   67   1 Pt  78       7.726614   13.504470   22.164934      10.0000    195.0840
   68   1 Pt  78      -6.363387   13.474471   22.254934      10.0000    195.0840
   69   1 Pt  78      -3.503387   13.414471   22.214933      10.0000    195.0840
   70   1 Pt  78      -0.663387   13.514471   22.204934      10.0000    195.0840
   71   1 Pt  78       2.156613   13.464470   22.364934      10.0000    195.0840
   72   1 Pt  78       4.986613   13.424470   22.184934      10.0000    195.0840
   73   1 Pt  78      -7.793387   14.224471   24.504934      10.0000    195.0840
   74   1 Pt  78      -4.983387   14.234471   24.464933      10.0000    195.0840
   75   1 Pt  78      -2.113387   14.194470   24.494935      10.0000    195.0840
   76   1 Pt  78       0.616613   14.114470   24.584936      10.0000    195.0840
   77   1 Pt  78       3.536613   14.194470   24.574933      10.0000    195.0840
   78   1 Pt  78       6.336613   14.214470   24.624936      10.0000    195.0840
   79   1 Pt  78       2.056613    2.144470   24.474935      10.0000    195.0840
   80   1 Pt  78       4.936614    2.124470   24.504934      10.0000    195.0840
   81   1 Pt  78       7.736614    2.024470   24.644933      10.0000    195.0840
   82   1 Pt  78      10.486614    1.844470   24.594934      10.0000    195.0840
   83   1 Pt  78      13.346613    1.934470   24.624936      10.0000    195.0840
   84   1 Pt  78      -0.743387    2.054470   24.564935      10.0000    195.0840
   85   1 Pt  78       3.596613    4.504470   24.504934      10.0000    195.0840
   86   1 Pt  78       6.416614    4.494470   24.544935      10.0000    195.0840
   87   1 Pt  78       9.236614    4.434470   24.624936      10.0000    195.0840
   88   1 Pt  78      11.886613    4.454470   24.604932      10.0000    195.0840
   89   1 Pt  78      -2.173387    4.434470   24.584936      10.0000    195.0840
   90   1 Pt  78       0.716613    4.454470   24.504934      10.0000    195.0840
   91   1 Pt  78       4.926613    6.994470   24.584936      10.0000    195.0840
   92   1 Pt  78       7.736614    6.874470   24.564935      10.0000    195.0840
   93   1 Pt  78      10.546614    6.984470   24.554937      10.0000    195.0840
   94   1 Pt  78      -3.583387    6.894470   24.564935      10.0000    195.0840
   95   1 Pt  78      -0.663387    6.834470   24.594934      10.0000    195.0840
   96   1 Pt  78       2.106613    6.894470   24.494935      10.0000    195.0840
   97   1 Pt  78       6.306613    9.424470   24.574933      10.0000    195.0840
   98   1 Pt  78       9.126614    9.344471   24.494935      10.0000    195.0840
   99   1 Pt  78      -4.933387    9.344471   24.434934      10.0000    195.0840
  100   1 Pt  78      -2.133387    9.234471   24.544935      10.0000    195.0840
  101   1 Pt  78       0.736613    9.244470   24.584936      10.0000    195.0840
  102   1 Pt  78       3.526613    9.384470   24.624936      10.0000    195.0840
  103   1 Pt  78       7.686614   11.854471   24.554937      10.0000    195.0840
  104   1 Pt  78      -6.403387   11.844471   24.454934      10.0000    195.0840
  105   1 Pt  78      -3.563387   11.764470   24.564935      10.0000    195.0840
  106   1 Pt  78      -0.773387   11.644471   24.624936      10.0000    195.0840
  107   1 Pt  78       2.086613   11.814470   24.594934      10.0000    195.0840
  108   1 Pt  78       4.816614   11.854471   24.564935      10.0000    195.0840
  109   1 Pt  78       2.036613    0.424470   26.742933      10.0000    195.0840
  110   1 Pt  78       4.886613    0.304470   26.752933      10.0000    195.0840
  111   1 Pt  78       7.706613    0.394470   26.862933      10.0000    195.0840
  112   1 Pt  78      10.396614    0.364470   26.922933      10.0000    195.0840
  113   1 Pt  78      13.326614    0.334470   26.962933      10.0000    195.0840
  114   1 Pt  78      16.106614    0.384470   26.872933      10.0000    195.0840
  115   1 Pt  78       3.566613    2.734470   26.892933      10.0000    195.0840
  116   1 Pt  78       6.176613    2.814470   26.982933      10.0000    195.0840
  117   1 Pt  78       9.006613    2.924470   26.872933      10.0000    195.0840
  118   1 Pt  78      11.796614    2.794470   26.832933      10.0000    195.0840
  119   1 Pt  78      14.676613    2.784470   26.922933      10.0000    195.0840
  120   1 Pt  78       0.706613    2.794470   26.872933      10.0000    195.0840
  121   1 Pt  78       4.866613    5.294470   26.842933      10.0000    195.0840
  122   1 Pt  78       7.626613    5.344470   26.892933      10.0000    195.0840
  123   1 Pt  78      10.396614    5.344470   26.902933      10.0000    195.0840
  124   1 Pt  78      13.226614    5.254470   26.852933      10.0000    195.0840
  125   1 Pt  78      -0.693387    5.254470   26.842933      10.0000    195.0840
  126   1 Pt  78       2.126613    5.154470   26.822933      10.0000    195.0840
  127   1 Pt  78       6.306613    7.764471   26.882933      10.0000    195.0840
  128   1 Pt  78       9.096613    7.734470   26.872933      10.0000    195.0840
  129   1 Pt  78      11.916613    7.694470   26.882933      10.0000    195.0840
  130   1 Pt  78      -2.153387    7.584470   26.832933      10.0000    195.0840
  131   1 Pt  78       0.706613    7.654470   26.842933      10.0000    195.0840
  132   1 Pt  78       3.436613    7.694470   26.862933      10.0000    195.0840
  133   1 Pt  78       7.676613   10.214470   26.802933      10.0000    195.0840
  134   1 Pt  78      10.506613   10.164470   26.722933      10.0000    195.0840
  135   1 Pt  78      -3.533387   10.124471   26.782933      10.0000    195.0840
  136   1 Pt  78      -0.763387   10.064471   26.922933      10.0000    195.0840
  137   1 Pt  78       2.036613   10.154470   26.962933      10.0000    195.0840
  138   1 Pt  78       4.846613   10.144471   26.832933      10.0000    195.0840
  139   1 Pt  78       9.066614   12.584470   26.952933      10.0000    195.0840
  140   1 Pt  78      -5.013387   12.544470   26.682933      10.0000    195.0840
  141   1 Pt  78      -2.133387   12.544470   26.922933      10.0000    195.0840
  142   1 Pt  78       0.556613   12.484471   26.942933      10.0000    195.0840
  143   1 Pt  78       3.376613   12.594471   26.972933      10.0000    195.0840
  144   1 Pt  78       6.256614   12.574471   26.972933      10.0000    195.0840
  145   1 Pt  78       0.516613    1.144470   29.142933      10.0000    195.0840
  146   1 Pt  78       3.386613    1.154470   29.172933      10.0000    195.0840
  147   1 Pt  78       6.196613    1.234470   29.292933      10.0000    195.0840
  148   1 Pt  78       8.896614    1.214470   29.192933      10.0000    195.0840
  149   1 Pt  78      11.836613    1.204470   29.242933      10.0000    195.0840
  150   1 Pt  78      14.536614    1.224470   29.292933      10.0000    195.0840
  151   1 Pt  78       2.026613    3.544470   29.172933      10.0000    195.0840
  152   1 Pt  78       4.776613    3.584470   29.232933      10.0000    195.0840
  153   1 Pt  78       7.566614    3.754470   29.192933      10.0000    195.0840
  154   1 Pt  78      10.406614    3.684470   29.102933      10.0000    195.0840
  155   1 Pt  78      13.276614    3.584470   29.152933      10.0000    195.0840
  156   1 Pt  78      -0.803387    3.564470   29.132933      10.0000    195.0840
  157   1 Pt  78       3.456613    6.014470   29.152933      10.0000    195.0840
  158   1 Pt  78       6.096613    6.104470   29.132933      10.0000    195.0840
  159   1 Pt  78       9.026614    6.114470   29.292933      10.0000    195.0840
  160   1 Pt  78      11.896614    6.004470   29.262933      10.0000    195.0840
  161   1 Pt  78      -2.123387    6.094471   29.152933      10.0000    195.0840
  162   1 Pt  78       0.736613    5.954470   29.092933      10.0000    195.0840
  163   1 Pt  78       4.816614    8.554471   29.202933      10.0000    195.0840
  164   1 Pt  78       7.566614    8.624470   29.092933      10.0000    195.0840
  165   1 Pt  78      10.566614    8.574471   29.172933      10.0000    195.0840
  166   1 Pt  78      -3.513387    8.504470   29.132933      10.0000    195.0840
  167   1 Pt  78      -0.703387    8.454470   29.242933      10.0000    195.0840
  168   1 Pt  78       1.976613    8.524470   29.252933      10.0000    195.0840
  169   1 Pt  78       6.176613   11.004470   29.242933      10.0000    195.0840
  170   1 Pt  78       9.036614   10.984471   29.192933      10.0000    195.0840
  171   1 Pt  78      -4.913387   10.874470   28.982933      10.0000    195.0840
  172   1 Pt  78      -2.083387   10.884470   29.142933      10.0000    195.0840
  173   1 Pt  78       0.646613   11.024470   29.282933      10.0000    195.0840
  174   1 Pt  78       3.446613   10.934471   29.152933      10.0000    195.0840
  175   1 Pt  78       7.566614   13.394471   29.322933      10.0000    195.0840
  176   1 Pt  78      -6.383387   13.394471   29.132933      10.0000    195.0840
  177   1 Pt  78      -3.673387   13.274470   29.102933      10.0000    195.0840
  178   1 Pt  78      -0.883387   13.424470   29.242933      10.0000    195.0840
  179   1 Pt  78       1.946613   13.454470   29.242933      10.0000    195.0840
  180   1 Pt  78       4.746613   13.414471   29.302933      10.0000    195.0840
  181   1 Pt  78      -7.793387   14.074471   31.542933      10.0000    195.0840
  182   1 Pt  78      -4.983387   14.114470   31.442933      10.0000    195.0840
  183   1 Pt  78      -2.293387   14.304471   31.522933      10.0000    195.0840
  184   1 Pt  78       0.586613   14.154471   31.602933      10.0000    195.0840
  185   1 Pt  78       3.506613   14.284471   31.592933      10.0000    195.0840
  186   1 Pt  78       6.226613   14.214470   31.612933      10.0000    195.0840
  187   1 Pt  78       1.946613    1.954470   31.502933      10.0000    195.0840
  188   1 Pt  78       4.746613    2.044470   31.532933      10.0000    195.0840
  189   1 Pt  78       7.656614    1.974470   31.642933      10.0000    195.0840
  190   1 Pt  78      10.486614    2.034470   31.352933      10.0000    195.0840
  191   1 Pt  78      13.196614    2.114470   31.772933      10.0000    195.0840
  192   1 Pt  78      -0.823387    1.904470   31.572933      10.0000    195.0840
  193   1 Pt  78       3.436613    4.504470   31.642933      10.0000    195.0840
  194   1 Pt  78       6.186614    4.504470   31.562933      10.0000    195.0840
  195   1 Pt  78       8.946614    4.484470   31.452933      10.0000    195.0840
  196   1 Pt  78      11.836613    4.444470   31.602933      10.0000    195.0840
  197   1 Pt  78      -2.253387    4.304470   31.402933      10.0000    195.0840
  198   1 Pt  78       0.556613    4.384470   31.462933      10.0000    195.0840
  199   1 Pt  78       4.756613    6.924470   31.522933      10.0000    195.0840
  200   1 Pt  78       7.646614    6.924470   31.542933      10.0000    195.0840
  201   1 Pt  78      10.426613    6.854470   31.672933      10.0000    195.0840
  202   1 Pt  78      -3.523387    6.884470   31.412933      10.0000    195.0840
  203   1 Pt  78      -0.733387    6.764470   31.402933      10.0000    195.0840
  204   1 Pt  78       1.986613    6.914471   31.532933      10.0000    195.0840
  205   1 Pt  78       6.206614    9.204470   31.522933      10.0000    195.0840
  206   1 Pt  78       9.026614    9.294470   31.472933      10.0000    195.0840
  207   1 Pt  78      -5.043387    9.314471   31.472933      10.0000    195.0840
  208   1 Pt  78      -2.303387    9.314471   31.532933      10.0000    195.0840
  209   1 Pt  78       0.546613    9.324471   31.572933      10.0000    195.0840
  210   1 Pt  78       3.356614    9.334470   31.712933      10.0000    195.0840
  211   1 Pt  78       7.586613   11.704471   31.642933      10.0000    195.0840
  212   1 Pt  78      -6.333387   11.714470   31.482933      10.0000    195.0840
  213   1 Pt  78      -3.583387   11.734471   31.472933      10.0000    195.0840
  214   1 Pt  78      -0.853387   11.814470   31.512933      10.0000    195.0840
  215   1 Pt  78       1.966613   11.794470   31.532933      10.0000    195.0840
  216   1 Pt  78       4.866613   11.814470   31.622933      10.0000    195.0840




 SCF PARAMETERS         Density guess:                                   RESTART
                        --------------------------------------------------------
                        max_scf:                                             500
                        max_scf_history:                                       0
                        max_diis:                                              4
                        --------------------------------------------------------
                        eps_scf:                                        1.00E-06
                        eps_scf_history:                                0.00E+00
                        eps_diis:                                       1.00E-01
                        eps_eigval:                                     1.00E-05
                        --------------------------------------------------------
                        level_shift [a.u.]:                             0.000000
                        added MOs                                       500    0
                        --------------------------------------------------------
                        Mixing method:                            BROYDEN_MIXING
                                                charge density mixing in g-space
                        --------------------------------------------------------
                        Smear method:                                FERMI_DIRAC
                        Electronic temperature [K]:                        300.0
                        Electronic temperature [a.u.]:                  9.50E-04
                        Accuracy threshold:                             1.00E-10
                        --------------------------------------------------------
                        No outer SCF

 PW_GRID| Information for grid number                                          1
 PW_GRID| Grid distributed over                                    32 processors
 PW_GRID| Real space group dimensions                                    32    1
 PW_GRID| the grid is blocked:                                                NO
 PW_GRID| Cutoff [a.u.]                                                    200.0
 PW_GRID| spherical cutoff:                                                   NO
 PW_GRID|   Bounds   1           -105     104                Points:         210
 PW_GRID|   Bounds   2           -105     104                Points:         210
 PW_GRID|   Bounds   3           -315     314                Points:         630
 PW_GRID| Volume element (a.u.^3)  0.3081E-02     Volume (a.u.^3)     85609.9578
 PW_GRID| Grid span                                                    FULLSPACE
 PW_GRID|   Distribution                         Average         Max         Min
 PW_GRID|   G-Vectors                           868218.8      868350      868140
 PW_GRID|   G-Rays                                4134.4        4135        4134
 PW_GRID|   Real Space Points                   868218.8      926100      793800

 PW_GRID| Information for grid number                                          2
 PW_GRID| Number of the reference grid                                         1
 PW_GRID| Grid distributed over                                    32 processors
 PW_GRID| Real space group dimensions                                    32    1
 PW_GRID| the grid is blocked:                                                NO
 PW_GRID| Cutoff [a.u.]                                                     66.7
 PW_GRID| spherical cutoff:                                                   NO
 PW_GRID|   Bounds   1            -60      59                Points:         120
 PW_GRID|   Bounds   2            -60      59                Points:         120
 PW_GRID|   Bounds   3           -180     179                Points:         360
 PW_GRID| Volume element (a.u.^3)  0.1651E-01     Volume (a.u.^3)     85609.9578
 PW_GRID| Grid span                                                    FULLSPACE
 PW_GRID|   Distribution                         Average         Max         Min
 PW_GRID|   G-Vectors                           162000.0      162840      161280
 PW_GRID|   G-Rays                                1350.0        1357        1344
 PW_GRID|   Real Space Points                   162000.0      172800      129600

 PW_GRID| Information for grid number                                          3
 PW_GRID| Number of the reference grid                                         1
 PW_GRID| Grid distributed over                                    32 processors
 PW_GRID| Real space group dimensions                                    32    1
 PW_GRID| the grid is blocked:                                                NO
 PW_GRID| Cutoff [a.u.]                                                     22.2
 PW_GRID| spherical cutoff:                                                   NO
 PW_GRID|   Bounds   1            -35      34                Points:          70
 PW_GRID|   Bounds   2            -35      34                Points:          70
 PW_GRID|   Bounds   3           -105     104                Points:         210
 PW_GRID| Volume element (a.u.^3)  0.8320E-01     Volume (a.u.^3)     85609.9578
 PW_GRID| Grid span                                                    FULLSPACE
 PW_GRID|   Distribution                         Average         Max         Min
 PW_GRID|   G-Vectors                            32156.2       32340       31990
 PW_GRID|   G-Rays                                 459.4         462         457
 PW_GRID|   Real Space Points                    32156.2       44100       29400

 PW_GRID| Information for grid number                                          4
 PW_GRID| Number of the reference grid                                         1
 PW_GRID| Grid distributed over                                    32 processors
 PW_GRID| Real space group dimensions                                    32    1
 PW_GRID| the grid is blocked:                                                NO
 PW_GRID| Cutoff [a.u.]                                                      7.4
 PW_GRID| spherical cutoff:                                                   NO
 PW_GRID|   Bounds   1            -20      19                Points:          40
 PW_GRID|   Bounds   2            -20      19                Points:          40
 PW_GRID|   Bounds   3            -60      59                Points:         120
 PW_GRID| Volume element (a.u.^3)  0.4459         Volume (a.u.^3)     85609.9578
 PW_GRID| Grid span                                                    FULLSPACE
 PW_GRID|   Distribution                         Average         Max         Min
 PW_GRID|   G-Vectors                             6000.0        6120        5920
 PW_GRID|   G-Rays                                 150.0         153         148
 PW_GRID|   Real Space Points                     6000.0        9600        4800

 POISSON| Solver                                          IMPLICIT (GENERALIZED)
 POISSON| Boundary Condition                                PERIODIC & DIRICHLET
 POISSON| Maximum number of iterations                                        30
 POISSON| Convergence threshold                                         1.00E-08
 POISSON| Dielectric Constant                                              80.00
 POISSON| Relaxation parameter                                          1.00E+00

 RS_GRID| Information for grid number                                          1
 RS_GRID|   Bounds   1           -105     104                Points:         210
 RS_GRID|   Bounds   2           -105     104                Points:         210
 RS_GRID|   Bounds   3           -315     314                Points:         630
 RS_GRID| Real space distribution over                                 32 groups
 RS_GRID| Real space distribution along direction                              3
 RS_GRID| Border size                                                         54
 RS_GRID|   Distribution                         Average         Max         Min
 RS_GRID|   Planes                                 127.7         128         127

 RS_GRID| Information for grid number                                          2
 RS_GRID|   Bounds   1            -60      59                Points:         120
 RS_GRID|   Bounds   2            -60      59                Points:         120
 RS_GRID|   Bounds   3           -180     179                Points:         360
 RS_GRID| Real space distribution over                                 32 groups
 RS_GRID| Real space distribution along direction                              3
 RS_GRID| Border size                                                         36
 RS_GRID|   Distribution                         Average         Max         Min
 RS_GRID|   Planes                                  83.2          84          83

 RS_GRID| Information for grid number                                          3
 RS_GRID|   Bounds   1            -35      34                Points:          70
 RS_GRID|   Bounds   2            -35      34                Points:          70
 RS_GRID|   Bounds   3           -105     104                Points:         210
 RS_GRID| Real space fully replicated
 RS_GRID| Group size                                                           1

 RS_GRID| Information for grid number                                          4
 RS_GRID|   Bounds   1            -20      19                Points:          40
 RS_GRID|   Bounds   2            -20      19                Points:          40
 RS_GRID|   Bounds   3            -60      59                Points:         120
 RS_GRID| Real space fully replicated
 RS_GRID| Group size                                                           1

 Number of electrons:                                                       2160
 Number of occupied orbitals:                                               1080
 Number of molecular orbitals:                                              1580

 Number of orbital functions:                                               4320
 Number of independent orbital functions:                                   4320

 Extrapolation method: initial_guess


 SCF WAVEFUNCTION OPTIMIZATION

  Step     Update method      Time    Convergence         Total energy    Change
  ------------------------------------------------------------------------------

  POISSON| IMPLICIT (GENERALIZED) SOLVER ---------------------------------------
  POISSON| Preparing Dirichlet regions ...
  POISSON| Dirichlet region    1
  POISSON|     type : axis-aligned planar
  POISSON|     applied potential :   0.0000E+00  [Eh/e]
  POISSON| Dirichlet region    2
  POISSON|     type : axis-aligned planar
  POISSON|     applied potential :   0.0000E+00  [Eh/e]
  POISSON| ... Done. 
  ------------------------------------------------------------------------------

  POISSON|   iter        pres error      nabs error        E_hartree    delta E
  POISSON|      1        0.1099E-05      0.3302E-01    1992.9986550812  0.20E+04
  POISSON|      2        0.1036E-14      0.1099E-05    1992.9986550812  0.23E-10
  POISSON| Poisson solver converged in 2 iterations.
     1 NoMix/Diag. 0.30E+00   11.1     0.21785605     -5670.9960782779 -5.67E+03
  POISSON|   iter        pres error      nabs error        E_hartree    delta E
  POISSON|      1        0.3395E-04      0.3280E-01    1992.8111298773 -0.19E+00
  POISSON|      2        0.9603E-15      0.3395E-04    1992.8111298773  0.23E-10
  POISSON| Poisson solver converged in 2 iterations.
     2 Broy./Diag. 0.30E+00   13.2     0.23549965     -5670.4952284334  5.01E-01
  POISSON|   iter        pres error      nabs error        E_hartree    delta E
  POISSON|      1        0.8396E-04      0.4305E-03    1992.9692038472  0.16E+00
  POISSON|      2        0.1388E-16      0.8396E-04    1992.9692038472  0.20E-11
  POISSON| Poisson solver converged in 2 iterations.
     3 Broy./Diag. 0.30E+00   13.3     0.16222500     -5675.4773094791 -4.98E+00
  POISSON|   iter        pres error      nabs error        E_hartree    delta E
  POISSON|      1        0.8726E-04      0.3517E-03    1993.0020878653  0.33E-01
  POISSON|      2        0.3564E-17      0.8726E-04    1993.0020878653  0.00E+00
  POISSON| Poisson solver converged in 2 iterations.
     4 Broy./Diag. 0.30E+00   13.3     0.15766007     -5672.6370546572  2.84E+00
  POISSON|   iter        pres error      nabs error        E_hartree    delta E
  POISSON|      1        0.4231E-04      0.1688E-03    1993.0543180745  0.52E-01
  POISSON|      2        0.4569E-17      0.4231E-04    1993.0543180745  0.68E-12
  POISSON| Poisson solver converged in 2 iterations.
     5 Broy./Diag. 0.30E+00   13.3     0.09674622     -5672.2023402366  4.35E-01
  POISSON|   iter        pres error      nabs error        E_hartree    delta E
  POISSON|      1        0.3535E-05      0.4331E-04    1993.1206903548  0.66E-01
  POISSON|      2        0.6162E-18      0.3535E-05    1993.1206903548 -0.45E-12
  POISSON| Poisson solver converged in 2 iterations.
     6 Broy./Diag. 0.30E+00   13.4     0.03493507     -5672.7646379182 -5.62E-01
  POISSON|   iter        pres error      nabs error        E_hartree    delta E
  POISSON|      1        0.1423E-05      0.3360E-04    1993.1948211467  0.74E-01
  POISSON|      2        0.3432E-18      0.1423E-05    1993.1948211467 -0.45E-12
  POISSON| Poisson solver converged in 2 iterations.
     7 Broy./Diag. 0.30E+00   13.4     0.02516873     -5672.3468210171  4.18E-01
  POISSON|   iter        pres error      nabs error        E_hartree    delta E
  POISSON|      1        0.1445E-05      0.3411E-04    1993.2388987588  0.44E-01
  POISSON|      2        0.1120E-17      0.1445E-05    1993.2388987588 -0.45E-12
  POISSON| Poisson solver converged in 2 iterations.
     8 Broy./Diag. 0.30E+00   13.4     0.02044422     -5672.0645725432  2.82E-01
  POISSON|   iter        pres error      nabs error        E_hartree    delta E
  POISSON|      1        0.1090E-05      0.1184E-04    1993.2608710657  0.22E-01
  POISSON|      2        0.1705E-18      0.1090E-05    1993.2608710657 -0.23E-12
  POISSON| Poisson solver converged in 2 iterations.
     9 Broy./Diag. 0.30E+00   13.5     0.00911428     -5672.3769594909 -3.12E-01
  POISSON|   iter        pres error      nabs error        E_hartree    delta E
  POISSON|      1        0.6293E-06      0.5905E-05    1993.2712365359  0.10E-01
  POISSON|      2        0.1165E-18      0.6293E-06    1993.2712365359 -0.23E-12
  POISSON| Poisson solver converged in 2 iterations.
    10 Broy./Diag. 0.30E+00   13.5     0.00414137     -5672.3152725294  6.17E-02
  POISSON|   iter        pres error      nabs error        E_hartree    delta E
  POISSON|      1        0.7052E-07      0.4595E-05    1993.2768994326  0.57E-02
  POISSON|      2        0.7180E-19      0.7052E-07    1993.2768994326 -0.23E-12
  POISSON| Poisson solver converged in 2 iterations.
    11 Broy./Diag. 0.30E+00   13.5     0.00444956     -5672.2671046299  4.82E-02
  POISSON|   iter        pres error      nabs error        E_hartree    delta E
  POISSON|      1        0.2532E-06      0.4572E-05    1993.2820119164  0.51E-02
  POISSON|      2        0.1364E-18      0.2532E-06    1993.2820119164 -0.23E-12
  POISSON| Poisson solver converged in 2 iterations.
    12 Broy./Diag. 0.30E+00   13.6     0.00303322     -5672.2682225573 -1.12E-03
  POISSON|   iter        pres error      nabs error        E_hartree    delta E
  POISSON|      1        0.2410E-07      0.3595E-05    1993.2875157964  0.55E-02
  POISSON|      2        0.3124E-19      0.2410E-07    1993.2875157964  0.00E+00
  POISSON| Poisson solver converged in 2 iterations.
    13 Broy./Diag. 0.30E+00   13.6     0.00144303     -5672.2836167635 -1.54E-02
  POISSON|   iter        pres error      nabs error        E_hartree    delta E
  POISSON|      1        0.6452E-07      0.1301E-05    1993.2881467477  0.63E-03
  POISSON|      2        0.1296E-19      0.6452E-07    1993.2881467477 -0.23E-12
  POISSON| Poisson solver converged in 2 iterations.
    14 Broy./Diag. 0.30E+00   13.7     0.00110489     -5672.2700271776  1.36E-02
  POISSON|   iter        pres error      nabs error        E_hartree    delta E
  POISSON|      1        0.1448E-06      0.1642E-05    1993.2883047636  0.16E-03
  POISSON|      2        0.5384E-19      0.1448E-06    1993.2883047636  0.00E+00
  POISSON| Poisson solver converged in 2 iterations.
    15 Broy./Diag. 0.30E+00   13.5     0.00061240     -5672.2701520622 -1.25E-04
  POISSON|   iter        pres error      nabs error        E_hartree    delta E
  POISSON|      1        0.1751E-06      0.1523E-05    1993.2882978498 -0.69E-05
  POISSON|      2        0.2455E-19      0.1751E-06    1993.2882978498  0.00E+00
  POISSON| Poisson solver converged in 2 iterations.
    16 Broy./Diag. 0.30E+00   13.6     0.00062936     -5672.2733085505 -3.16E-03
  POISSON|   iter        pres error      nabs error        E_hartree    delta E
  POISSON|      1        0.4031E-06      0.1933E-05    1993.2879649749 -0.33E-03
  POISSON|      2        0.4340E-19      0.4031E-06    1993.2879649749 -0.45E-12
  POISSON| Poisson solver converged in 2 iterations.
    17 Broy./Diag. 0.30E+00   13.5     0.00101191     -5672.2771252830 -3.82E-03
  POISSON|   iter        pres error      nabs error        E_hartree    delta E
  POISSON|      1        0.2696E-06      0.1333E-05    1993.2880262595  0.61E-04
  POISSON|      2        0.2904E-20      0.2696E-06    1993.2880262595  0.00E+00
  POISSON| Poisson solver converged in 2 iterations.
    18 Broy./Diag. 0.30E+00   13.5     0.00092235     -5672.2722194316  4.91E-03
  POISSON|   iter        pres error      nabs error        E_hartree    delta E
  POISSON|      1        0.1104E-06      0.8756E-06    1993.2878484744 -0.18E-03
  POISSON|      2        0.3746E-19      0.1104E-06    1993.2878484744  0.00E+00
  POISSON| Poisson solver converged in 2 iterations.
    19 Broy./Diag. 0.30E+00   13.5     0.00049159     -5672.2734297800 -1.21E-03
  POISSON|   iter        pres error      nabs error        E_hartree    delta E
  POISSON|      1        0.2155E-09      0.4746E-06    1993.2878224115 -0.26E-04
  POISSON| Poisson solver converged in 1 iteration. 
    20 Broy./Diag. 0.30E+00   12.1     0.00013770     -5672.2763595325 -2.93E-03
  POISSON|   iter        pres error      nabs error        E_hartree    delta E
  POISSON|      1        0.9812E-08      0.4767E-06    1993.2879653170  0.14E-03
  POISSON| Poisson solver converged in 1 iteration. 
    21 Broy./Diag. 0.30E+00   12.1     0.00016455     -5672.2773765399 -1.02E-03
  POISSON|   iter        pres error      nabs error        E_hartree    delta E
  POISSON|      1        0.6633E-08      0.6587E-06    1993.2880377122  0.72E-04
  POISSON| Poisson solver converged in 1 iteration. 
    22 Broy./Diag. 0.30E+00   12.2     0.00017165     -5672.2754959402  1.88E-03
  POISSON|   iter        pres error      nabs error        E_hartree    delta E
  POISSON|      1        0.2060E-07      0.8935E-06    1993.2881800824  0.14E-03
  POISSON|      2        0.3690E-19      0.2060E-07    1993.2881800824 -0.23E-12
  POISSON| Poisson solver converged in 2 iterations.
    23 Broy./Diag. 0.30E+00   13.5     0.00011265     -5672.2754319557  6.40E-05
  POISSON|   iter        pres error      nabs error        E_hartree    delta E
  POISSON|      1        0.1681E-07      0.6949E-06    1993.2883784336  0.20E-03
  POISSON|      2        0.2602E-19      0.1681E-07    1993.2883784336  0.00E+00
  POISSON| Poisson solver converged in 2 iterations.
    24 Broy./Diag. 0.30E+00   13.6     0.00008810     -5672.2768327291 -1.40E-03
  POISSON|   iter        pres error      nabs error        E_hartree    delta E
  POISSON|      1        0.4299E-08      0.5165E-06    1993.2885526760  0.17E-03
  POISSON| Poisson solver converged in 1 iteration. 
    25 Broy./Diag. 0.30E+00   12.2     0.00008024     -5672.2762204634  6.12E-04
  POISSON|   iter        pres error      nabs error        E_hartree    delta E
  POISSON|      1        0.3367E-07      0.4937E-06    1993.2886860372  0.13E-03
  POISSON|      2        0.2049E-19      0.3367E-07    1993.2886860372 -0.23E-12
  POISSON| Poisson solver converged in 2 iterations.
    26 Broy./Diag. 0.30E+00   13.5     0.00008678     -5672.2756902427  5.30E-04
  POISSON|   iter        pres error      nabs error        E_hartree    delta E
  POISSON|      1        0.3197E-07      0.4779E-06    1993.2887847406  0.99E-04
  POISSON|      2        0.1691E-19      0.3197E-07    1993.2887847406  0.23E-12
  POISSON| Poisson solver converged in 2 iterations.
    27 Broy./Diag. 0.30E+00   13.5     0.00011042     -5672.2757177451 -2.75E-05
  POISSON|   iter        pres error      nabs error        E_hartree    delta E
  POISSON|      1        0.4295E-07      0.3609E-06    1993.2888598081  0.75E-04
  POISSON|      2        0.1555E-19      0.4295E-07    1993.2888598081 -0.23E-12
  POISSON| Poisson solver converged in 2 iterations.
    28 Broy./Diag. 0.30E+00   13.5     0.00010755     -5672.2763495804 -6.32E-04
  POISSON|   iter        pres error      nabs error        E_hartree    delta E
  POISSON|      1        0.1788E-07      0.3347E-06    1993.2889258745  0.66E-04
  POISSON|      2        0.1154E-19      0.1788E-07    1993.2889258745  0.00E+00
  POISSON| Poisson solver converged in 2 iterations.
    29 Broy./Diag. 0.30E+00   13.5     0.00009746     -5672.2760372265  3.12E-04
  POISSON|   iter        pres error      nabs error        E_hartree    delta E
  POISSON|      1        0.9386E-08      0.3193E-06    1993.2889403107  0.14E-04
  POISSON| Poisson solver converged in 1 iteration. 
    30 Broy./Diag. 0.30E+00   12.2     0.00003631     -5672.2757569281  2.80E-04
  POISSON|   iter        pres error      nabs error        E_hartree    delta E
  POISSON|      1        0.4216E-08      0.3563E-06    1993.2889257534 -0.15E-04
  POISSON| Poisson solver converged in 1 iteration. 
    31 Broy./Diag. 0.30E+00   12.2     0.00004133     -5672.2759284647 -1.72E-04
  POISSON|   iter        pres error      nabs error        E_hartree    delta E
  POISSON|      1        0.4714E-08      0.3582E-06    1993.2889363671  0.11E-04
  POISSON| Poisson solver converged in 1 iteration. 
    32 Broy./Diag. 0.30E+00   12.1     0.00005295     -5672.2766680740 -7.40E-04
  POISSON|   iter        pres error      nabs error        E_hartree    delta E
  POISSON|      1        0.2857E-09      0.1679E-06    1993.2889287196 -0.76E-05
  POISSON| Poisson solver converged in 1 iteration. 
    33 Broy./Diag. 0.30E+00   12.2     0.00004148     -5672.2765645028  1.04E-04
  POISSON|   iter        pres error      nabs error        E_hartree    delta E
  POISSON|      1        0.2503E-08      0.2424E-06    1993.2889224832 -0.62E-05
  POISSON| Poisson solver converged in 1 iteration. 
    34 Broy./Diag. 0.30E+00   12.1     0.00002142     -5672.2762957389  2.69E-04
  POISSON|   iter        pres error      nabs error        E_hartree    delta E
  POISSON|      1        0.3551E-08      0.1872E-06    1993.2889284389  0.60E-05
  POISSON| Poisson solver converged in 1 iteration. 
    35 Broy./Diag. 0.30E+00   12.1     0.00002200     -5672.2766271169 -3.31E-04
  POISSON|   iter        pres error      nabs error        E_hartree    delta E
  POISSON|      1        0.7530E-08      0.1123E-06    1993.2889385658  0.10E-04
  POISSON| Poisson solver converged in 1 iteration. 
    36 Broy./Diag. 0.30E+00   12.1     0.00002831     -5672.2766926468 -6.55E-05
  POISSON|   iter        pres error      nabs error        E_hartree    delta E
  POISSON|      1        0.1112E-07      0.1607E-06    1993.2889625986  0.24E-04
  POISSON|      2        0.8064E-20      0.1112E-07    1993.2889625986  0.45E-12
  POISSON| Poisson solver converged in 2 iterations.
    37 Broy./Diag. 0.30E+00   13.5     0.00003137     -5672.2766155966  7.71E-05
  POISSON|   iter        pres error      nabs error        E_hartree    delta E
  POISSON|      1        0.9870E-08      0.9230E-07    1993.2889763440  0.14E-04
  POISSON| Poisson solver converged in 1 iteration. 
    38 Broy./Diag. 0.30E+00   12.2     0.00003001     -5672.2764629461  1.53E-04
  POISSON|   iter        pres error      nabs error        E_hartree    delta E
  POISSON|      1        0.6909E-08      0.9856E-07    1993.2889917711  0.15E-04
  POISSON| Poisson solver converged in 1 iteration. 
    39 Broy./Diag. 0.30E+00   12.1     0.00002730     -5672.2765710393 -1.08E-04
  POISSON|   iter        pres error      nabs error        E_hartree    delta E
  POISSON|      1        0.2588E-08      0.8111E-07    1993.2890165802  0.25E-04
  POISSON| Poisson solver converged in 1 iteration. 
    40 Broy./Diag. 0.30E+00   12.2     0.00001346     -5672.2766009149 -2.99E-05
  POISSON|   iter        pres error      nabs error        E_hartree    delta E
  POISSON|      1        0.2339E-09      0.1008E-06    1993.2890437059  0.27E-04
  POISSON| Poisson solver converged in 1 iteration. 
    41 Broy./Diag. 0.30E+00   12.1     0.00001042     -5672.2765137511  8.72E-05
  POISSON|   iter        pres error      nabs error        E_hartree    delta E
  POISSON|      1        0.7060E-09      0.1396E-06    1993.2890638567  0.20E-04
  POISSON| Poisson solver converged in 1 iteration. 
    42 Broy./Diag. 0.30E+00   12.1     0.00001307     -5672.2763674389  1.46E-04
  POISSON|   iter        pres error      nabs error        E_hartree    delta E
  POISSON|      1        0.7161E-09      0.8205E-07    1993.2890758494  0.12E-04
  POISSON| Poisson solver converged in 1 iteration. 
    43 Broy./Diag. 0.30E+00   12.1     0.00001502     -5672.2764676791 -1.00E-04
  POISSON|   iter        pres error      nabs error        E_hartree    delta E
  POISSON|      1        0.1239E-09      0.9069E-07    1993.2890878452  0.12E-04
  POISSON| Poisson solver converged in 1 iteration. 
    44 Broy./Diag. 0.30E+00   12.1     0.00000890     -5672.2765342772 -6.66E-05
  POISSON|   iter        pres error      nabs error        E_hartree    delta E
  POISSON|      1        0.1133E-09      0.8016E-07    1993.2890863889 -0.15E-05
  POISSON| Poisson solver converged in 1 iteration. 
    45 Broy./Diag. 0.30E+00   12.1     0.00000765     -5672.2764173929  1.17E-04
  POISSON|   iter        pres error      nabs error        E_hartree    delta E
  POISSON|      1        0.2347E-08      0.8110E-07    1993.2890788405 -0.75E-05
  POISSON| Poisson solver converged in 1 iteration. 
    46 Broy./Diag. 0.30E+00   12.2     0.00001008     -5672.2764610993 -4.37E-05
  POISSON|   iter        pres error      nabs error        E_hartree    delta E
  POISSON|      1        0.3232E-08      0.5778E-07    1993.2890751739 -0.37E-05
  POISSON| Poisson solver converged in 1 iteration. 
    47 Broy./Diag. 0.30E+00   12.1     0.00001137     -5672.2764917761 -3.07E-05
  POISSON|   iter        pres error      nabs error        E_hartree    delta E
  POISSON|      1        0.3258E-08      0.5718E-07    1993.2890681570 -0.70E-05
  POISSON| Poisson solver converged in 1 iteration. 
    48 Broy./Diag. 0.30E+00   12.1     0.00001134     -5672.2765512830 -5.95E-05
  POISSON|   iter        pres error      nabs error        E_hartree    delta E
  POISSON|      1        0.2650E-08      0.3369E-07    1993.2890654994 -0.27E-05
  POISSON| Poisson solver converged in 1 iteration. 
    49 Broy./Diag. 0.30E+00   12.2     0.00000979     -5672.2765048243  4.65E-05
  POISSON|   iter        pres error      nabs error        E_hartree    delta E
  POISSON|      1        0.1304E-08      0.5027E-07    1993.2890605369 -0.50E-05
  POISSON| Poisson solver converged in 1 iteration. 
    50 Broy./Diag. 0.30E+00   12.1     0.00000697     -5672.2765050629 -2.39E-07
  POISSON|   iter        pres error      nabs error        E_hartree    delta E
  POISSON|      1        0.3486E-09      0.3962E-07    1993.2890588110 -0.17E-05
  POISSON| Poisson solver converged in 1 iteration. 
    51 Broy./Diag. 0.30E+00   12.1     0.00000358     -5672.2765411655 -3.61E-05
  POISSON|   iter        pres error      nabs error        E_hartree    delta E
  POISSON|      1        0.3855E-09      0.3403E-07    1993.2890617480  0.29E-05
  POISSON| Poisson solver converged in 1 iteration. 
    52 Broy./Diag. 0.30E+00   12.1     0.00000373     -5672.2765653007 -2.41E-05
  POISSON|   iter        pres error      nabs error        E_hartree    delta E
  POISSON|      1        0.3367E-09      0.3952E-07    1993.2890651911  0.34E-05
  POISSON| Poisson solver converged in 1 iteration. 
    53 Broy./Diag. 0.30E+00   12.1     0.00000416     -5672.2765136364  5.17E-05
  POISSON|   iter        pres error      nabs error        E_hartree    delta E
  POISSON|      1        0.6033E-10      0.2315E-07    1993.2890681747  0.30E-05
  POISSON| Poisson solver converged in 1 iteration. 
    54 Broy./Diag. 0.30E+00   12.1     0.00000264     -5672.2765011070  1.25E-05
  POISSON|   iter        pres error      nabs error        E_hartree    delta E
  POISSON|      1        0.2928E-09      0.2133E-07    1993.2890751311  0.70E-05
  POISSON| Poisson solver converged in 1 iteration. 
    55 Broy./Diag. 0.30E+00   12.4     0.00000272     -5672.2765343195 -3.32E-05
  POISSON|   iter        pres error      nabs error        E_hartree    delta E
  POISSON|      1        0.8355E-09      0.2216E-07    1993.2890818337  0.67E-05
  POISSON| Poisson solver converged in 1 iteration. 
    56 Broy./Diag. 0.30E+00   12.1     0.00000323     -5672.2765058561  2.85E-05
  POISSON|   iter        pres error      nabs error        E_hartree    delta E
  POISSON|      1        0.6669E-09      0.1511E-07    1993.2890852268  0.34E-05
  POISSON| Poisson solver converged in 1 iteration. 
    57 Broy./Diag. 0.30E+00   12.1     0.00000265     -5672.2764988479  7.01E-06
  POISSON|   iter        pres error      nabs error        E_hartree    delta E
  POISSON|      1        0.1213E-08      0.1673E-07    1993.2890894332  0.42E-05
  POISSON| Poisson solver converged in 1 iteration. 
    58 Broy./Diag. 0.30E+00   12.2     0.00000339     -5672.2764911037  7.74E-06
  POISSON|   iter        pres error      nabs error        E_hartree    delta E
  POISSON|      1        0.7866E-09      0.9016E-08    1993.2890908841  0.15E-05
  POISSON| Poisson solver converged in 1 iteration. 
    59 Broy./Diag. 0.30E+00   12.1     0.00000318     -5672.2765089645 -1.79E-05
  POISSON|   iter        pres error      nabs error        E_hartree    delta E
  POISSON|      1        0.7265E-09      0.1588E-07    1993.2890928859  0.20E-05
  POISSON| Poisson solver converged in 1 iteration. 
    60 Broy./Diag. 0.30E+00   12.1     0.00000254     -5672.2765056682  3.30E-06
  POISSON|   iter        pres error      nabs error        E_hartree    delta E
  POISSON|      1        0.3734E-10      0.1256E-07    1993.2890933166  0.43E-06
  POISSON| Poisson solver converged in 1 iteration. 
    61 Broy./Diag. 0.30E+00   12.1     0.00000127     -5672.2765008862  4.78E-06
  POISSON|   iter        pres error      nabs error        E_hartree    delta E
  POISSON|      1        0.1257E-09      0.1335E-07    1993.2890924573 -0.86E-06
  POISSON| Poisson solver converged in 1 iteration. 
    62 Broy./Diag. 0.30E+00   12.2     0.00000145     -5672.2765024538 -1.57E-06
  POISSON|   iter        pres error      nabs error        E_hartree    delta E
  POISSON|      1        0.2640E-09      0.1850E-07    1993.2890921865 -0.27E-06
  POISSON| Poisson solver converged in 1 iteration. 
    63 Broy./Diag. 0.30E+00   12.1     0.00000101     -5672.2765230391 -2.06E-05
  POISSON|   iter        pres error      nabs error        E_hartree    delta E
  POISSON|      1        0.1653E-09      0.7029E-08    1993.2890912716 -0.91E-06
  POISSON| Poisson solver converged in 1 iteration. 
    64 Broy./Diag. 0.30E+00   12.1     0.00000121     -5672.2765224921  5.47E-07
  POISSON|   iter        pres error      nabs error        E_hartree    delta E
  POISSON|      1        0.1676E-09      0.1547E-07    1993.2890895009 -0.18E-05
  POISSON| Poisson solver converged in 1 iteration. 
    65 Broy./Diag. 0.30E+00   12.1     0.00000104     -5672.2765097581  1.27E-05
  POISSON|   iter        pres error      nabs error        E_hartree    delta E
  POISSON|      1        0.6106E-10      0.1393E-07    1993.2890885163 -0.98E-06
  POISSON| Poisson solver converged in 1 iteration. 
    66 Broy./Diag. 0.30E+00   12.1     0.00000116     -5672.2765245416 -1.48E-05
  POISSON|   iter        pres error      nabs error        E_hartree    delta E
  POISSON|      1        0.4453E-09      0.6631E-08    1993.2890879430 -0.57E-06
  POISSON| Poisson solver converged in 1 iteration. 
    67 Broy./Diag. 0.30E+00   12.1     0.00000119     -5672.2765219638  2.58E-06
  POISSON|   iter        pres error      nabs error        E_hartree    delta E
  POISSON|      1        0.2304E-09      0.1045E-07    1993.2890878430 -0.10E-06
  POISSON| Poisson solver converged in 1 iteration. 
    68 Broy./Diag. 0.30E+00   12.1     0.00000129     -5672.2765217966  1.67E-07
  POISSON|   iter        pres error      nabs error        E_hartree    delta E
  POISSON|      1        0.4698E-09      0.5693E-08    1993.2890879810  0.14E-06
  POISSON| Poisson solver converged in 1 iteration. 
    69 Broy./Diag. 0.30E+00   12.1     0.00000115     -5672.2765141049  7.69E-06
  POISSON|   iter        pres error      nabs error        E_hartree    delta E
  POISSON|      1        0.1420E-09      0.7321E-08    1993.2890886295  0.65E-06
  POISSON| Poisson solver converged in 1 iteration. 
    70 Broy./Diag. 0.30E+00   12.1     0.00000118     -5672.2765157012 -1.60E-06
  POISSON|   iter        pres error      nabs error        E_hartree    delta E
  POISSON|      1        0.1978E-09      0.6360E-08    1993.2890895818  0.95E-06
  POISSON| Poisson solver converged in 1 iteration. 
    71 Broy./Diag. 0.30E+00   12.2     0.00000070     -5672.2765151498  5.51E-07

  *** SCF run converged in    71 steps ***


  Electronic density on regular grids:      -2159.9999999992        0.0000000008
  Core density on regular grids:             2159.9999999995       -0.0000000005
  Total charge density on r-space grids:        0.0000000003
  Total charge density g-space grids:           0.0000000003

  Overlap energy of the core charge distribution:               0.00003052486313
  Self energy of the core charge distribution:              -9891.63555570741482
  Core Hamiltonian energy:                                   3201.64056600451340
  Hartree energy:                                            1993.28908958180318
  Electric enthalpy:                                         1993.28908958180318
  Exchange-correlation energy:                               -970.85177309836058
[...]
    191      1      Pt          0.00528693    -0.01433086    -0.01204149
    192      1      Pt          0.00359745     0.00650731    -0.00246003
    193      1      Pt         -0.00909987    -0.00475982    -0.01346205
    194      1      Pt          0.00067485    -0.00339353    -0.00431238
    195      1      Pt          0.00814826    -0.00957761     0.01058430
    196      1      Pt         -0.00018124     0.00556433    -0.00980612
    197      1      Pt          0.00734537     0.01878825     0.00947588
    198      1      Pt          0.00856834    -0.00349710    -0.00177207
    199      1      Pt          0.00073924    -0.00431364     0.00028826
    200      1      Pt         -0.00644108    -0.00671289    -0.00506167
    201      1      Pt          0.00590294     0.00332452    -0.01363991
    202      1      Pt         -0.01332134    -0.00610617     0.01117240
    203      1      Pt         -0.00374609     0.00863323     0.00829169
    204      1      Pt          0.00016576    -0.00611930    -0.00290749
    205      1      Pt         -0.00250100     0.02062315     0.00067502
    206      1      Pt          0.00172709     0.00435325    -0.00497723
    207      1      Pt          0.00287233    -0.00570730     0.00278817
    208      1      Pt          0.01429058     0.00302569    -0.00604467
    209      1      Pt          0.00053750     0.00223585     0.00194520
    210      1      Pt          0.00480398     0.00759158    -0.01691312
    211      1      Pt          0.00952144    -0.00197588    -0.00744343
    212      1      Pt         -0.01168466    -0.00369838    -0.00753023
    213      1      Pt         -0.00278450     0.00071049    -0.00594161
    214      1      Pt         -0.00103008    -0.00690631     0.00782468
    215      1      Pt          0.01386502    -0.00232961     0.00298474
    216      1      Pt         -0.01618672    -0.00958289    -0.00410806
 SUM OF ATOMIC FORCES           0.00005125     0.00005552     0.00023174     0.00024375

 -------------------------------------------------------------------------------
 -                                                                             -
 -                                DBCSR STATISTICS                             -
 -                                                                             -
 -------------------------------------------------------------------------------
 COUNTER                                    TOTAL       BLAS       SMM       ACC
 flops    20 x    12 x    20            447897600       0.0%    100.0%      0.0%
 flops    20 x    32 x    20          58525286400       0.0%    100.0%      0.0%
 flops    20 x    20 x   204         279207129600       0.0%    100.0%      0.0%
 flops    20 x    20 x   224         306580377600       0.0%    100.0%      0.0%
 flops    20 x    20 x   192        1576699084800       0.0%    100.0%      0.0%
 flops inhomo. stacks                           0       0.0%      0.0%      0.0%
 flops total                         2.221460E+12       0.0%    100.0%      0.0%
 flops max/rank                     71.292109E+09       0.0%    100.0%      0.0%
 matmuls inhomo. stacks                         0       0.0%      0.0%      0.0%
 matmuls total                           16019424       0.0%    100.0%      0.0%
 number of processed stacks                 21120       0.0%    100.0%      0.0%
 average stack size                                     0.0     758.5       0.0
 marketing flops                     3.165477E+12
 -------------------------------------------------------------------------------
 # multiplications                             74
 max memory usage/rank               1.820217E+09
 # max total images/rank                        2
 # max 3D layers                                1
 # MPI messages exchanged                   30784
 MPI messages size (bytes):
  total size                        41.070412E+09
  min size                         829.440000E+03
  max size                           4.665600E+06
  average size                       1.334148E+06
 MPI breakdown and total messages size (bytes):
             size <=      128                   0                        0
       128 < size <=     8192                   0                        0
      8192 < size <=    32768                   0                        0
     32768 < size <=   131072                   0                        0
    131072 < size <=  4194304               30560              40025318400
   4194304 < size <= 16777216                 224               1045094400
  16777216 < size                               0                        0
 -------------------------------------------------------------------------------

 *** WARNING in dbcsr_mm.F:290 :: Using a non-square number of MPI ranks ***
 *** might lead to poor performance. Used ranks: 32 Suggested: 36 64     ***

 -------------------------------------------------------------------------------
 -                                                                             -
 -                      DBCSR MESSAGE PASSING PERFORMANCE                      -
 -                                                                             -
 -------------------------------------------------------------------------------
 ROUTINE             CALLS      AVE VOLUME [Bytes]
 MP_Bcast                6                     12.
 MP_Allreduce          541                      9.
 MP_Alltoall          2053                1276539.
 MP_ISend             2368                 577311.
 MP_IRecv             2368                 560290.
 -------------------------------------------------------------------------------

 -------------------------------------------------------------------------------
 -                                                                             -
 -                                DBM STATISTICS                               -
 -                                                                             -
 -------------------------------------------------------------------------------
    M  x    N  x    K                                          COUNT     PERCENT
 -------------------------------------------------------------------------------

 -------------------------------------------------------------------------------
 -                                                                             -
 -                                GRID STATISTICS                              -
 -                                                                             -
 -------------------------------------------------------------------------------
 LP    KERNEL             BACKEND                              COUNT     PERCENT
 4     collocate general  REF                               24486048      49.97%
 4     integrate general  REF                               24145964      49.28%
 5     integrate general  REF                                 340084       0.69%
 0     collocate general  REF                                  13824       0.03%
 0     integrate general  REF                                   6912       0.01%
 1     integrate general  REF                                   6912       0.01%
 -------------------------------------------------------------------------------

 MEMORY| Estimated peak process memory [MiB]                                2184

 -------------------------------------------------------------------------------
 ----                             MULTIGRID INFO                            ----
 -------------------------------------------------------------------------------
 count for grid        1:          17559          cutoff [a.u.]          200.00
 count for grid        2:         177505          cutoff [a.u.]           66.67
 count for grid        3:         109547          cutoff [a.u.]           22.22
 count for grid        4:         155121          cutoff [a.u.]            7.41
 total gridlevel count  :         459732

 -------------------------------------------------------------------------------
 -                                                                             -
 -                         MESSAGE PASSING PERFORMANCE                         -
 -                                                                             -
 -------------------------------------------------------------------------------

 ROUTINE             CALLS      AVE VOLUME [Bytes]
 MP_Group                4
 MP_Bcast             1786                 163054.
 MP_Allreduce         1732                   1463.
 MP_Sync                77
 MP_Alltoall          3457               49249282.
 MP_SendRecv           124                  14976.
 MP_ISendRecv         8928                 214800.
 MP_Wait             21624
 MP_comm_split           1
 MP_ISend            11384                 714190.
 MP_IRecv            11384                 714190.
 MP_Recv               192                1105920.
 MP_Write_All            3                4213860.
 -------------------------------------------------------------------------------


 -------------------------------------------------------------------------------
 -                                                                             -
 -                           R E F E R E N C E S                               -
 -                                                                             -
 -------------------------------------------------------------------------------
 
 CP2K version 2022.1, the CP2K developers group (2022).
 CP2K is freely available from https://www.cp2k.org/ .

 Kuehne,Thomas D.; Iannuzzi,Marcella; Del Ben,Mauro;
 Rybkin,Vladimir V.; Seewald,Patrick; Stein,Frederick; Laino,Teodoro;
 Khaliullin,Rustam Z.; Schuett,Ole; Schiffmann,Florian; Golze,Dorothea;
 Wilhelm,Jan; Chulkov,Sergey; Bani-Hashemian,Mohammad Hossein;
 Weber,Valery; Borstnik,Urban; Taillefumier,Mathieu;
 Jakobovits,Alice Shoshana; Lazzaro,Alfio; Pabst,Hans; Mueller,Tiziano;
 Schade,Robert; Guidon,Manuel; Andermatt,Samuel; Holmberg,Nico;
 Schenter,Gregory K.; Hehn,Anna; Bussy,Augustin; Belleflamme,Fabian;
 Tabacchi,Gloria; Gloess,Andreas; Lass,Michael; Bethune,Iain;
 Mundy,Christopher J.; Plessl,Christian; Watkins,Matt;
 VandeVondele,Joost; Krack,Matthias; Hutter,Juerg. 
 The Journal of Chemical Physics, 152 (19), (2020). 
 CP2K: An electronic structure and molecular dynamics software package -
 Quickstep: Efficient and accurate electronic structure calculations.
 https://doi.org/10.1063/5.0007045

 Goerigk, Lars; Hansen, Andreas; Bauer, Christoph; Ehrlich, Stephan;
 Najibi, Asim; Grimme, Stefan. , 19 (48), (2017). 
 A look at the density functional theory zoo with the advanced GMTKN55 database
 for general main group thermochemistry, kinetics and noncovalent interactions.
 https://doi.org/10.1039/C7CP04913G

 Bani-Hashemian, MH; Bruck, S; Luisier, M; VandeVondele, J. 
 JOURNAL OF CHEMICAL PHYSICS, 144 (4), 044113 (2016). 
 A generalized Poisson solver for first-principles device simulations.
 https://doi.org/10.1063/1.4940796

 Schuett, Ole; Messmer, Peter; Hutter, Juerg; VandeVondele, Joost. 
 Electronic Structure Calculations on Graphics Processing Units, John
 Wiley & Sons, Ltd, 173-190 (2016). 
 GPU-Accelerated Sparse Matrix-Matrix Multiplication for
 Linear Scaling Density Functional Theory.
 https://doi.org/10.1002/9781118670712.ch8

 Heinecke, A; Henry, G; Hutchinson, M; Pabst, H. 
 Proceedings of Intl. Supercomputing Conference, 981-991 (2016). 
 LIBXSMM: Accelerating Small Matrix Multiplications
 by Runtime Code Generation.
 https://doi.org/10.1109/SC.2016.83

 Borstnik, U; VandeVondele, J; Weber, V; Hutter, J. 
 PARALLEL COMPUTING, 40 (5-6), 47-58 (2014). 
 Sparse matrix multiplication: The distributed block-compressed sparse
 row library.
 https://doi.org/10.1016/j.parco.2014.03.012

 Hutter, J; Iannuzzi, M; Schiffmann, F; VandeVondele, J. 
 WIREs Comput Mol Sci., 4 (1), 15-25 (2014). 
 CP2K: atomistic simulations of condensed matter systems.
 https://doi.org/10.1002/wcms.1159

 Marek, A; Blum, V; Johanni, R; Havu, V; Lang, B; Auckenthaler, T;
 Heinecke, A; Bungartz, H; Lederer, H. 
 Journal of Physics: Condensed Matter, 26 (21), (2014). 
 The ELPA library: scalable parallel eigenvalue solutions for
 electronic structure
 theory and computational science.
 https://doi.org/10.1088/0953-8984/26/21/213201

 Grimme, S; Ehrlich, S; Goerigk, L. 
 JOURNAL OF COMPUTATIONAL CHEMISTRY, 32, 1456 (2011). 
 Effect of the damping function in dispersion corrected density functional theory.
 https://doi.org/10.1002/jcc.21759

 Grimme, S; Antony, J; Ehrlich, S; Krieg, H. 
 JOURNAL OF CHEMICAL PHYSICS, 132 (15), 154104 (2010). 
 A consistent and accurate ab initio parametrization of density
 functional dispersion correction (DFT-D) for the 94 elements H-Pu.
 https://doi.org/10.1063/1.3382344

 VandeVondele, J; Hutter, J. 
 JOURNAL OF CHEMICAL PHYSICS, 127 (11), 114105 (2007). 
 Gaussian basis sets for accurate calculations on molecular systems in
 gas and condensed phases.
 https://doi.org/10.1063/1.2770708

 Krack, M. 
 THEORETICAL CHEMISTRY ACCOUNTS, 114 (1-3), 145-152 (2005). 
 Pseudopotentials for H to Kr optimized for gradient-corrected
 exchange-correlation functionals.
 https://doi.org/10.1007/s00214-005-0655-y

 VandeVondele, J; Krack, M; Mohamed, F; Parrinello, M; Chassaing, T;
 Hutter, J. COMPUTER PHYSICS COMMUNICATIONS, 167 (2), 103-128 (2005). 
 QUICKSTEP: Fast and accurate density functional calculations using a
 mixed Gaussian and plane waves approach.
 https://doi.org/10.1016/j.cpc.2004.12.014

 Frigo, M; Johnson, SG. 
 PROCEEDINGS OF THE IEEE, 93 (2), 216-231 (2005). 
 The design and implementation of FFTW3.
 https://doi.org/10.1109/JPROC.2004.840301

 Hartwigsen, C; Goedecker, S; Hutter, J. 
 PHYSICAL REVIEW B, 58 (7), 3641-3662 (1998). 
 Relativistic separable dual-space Gaussian pseudopotentials from H to Rn.
 https://doi.org/10.1103/PhysRevB.58.3641

 Lippert, G; Hutter, J; Parrinello, M. 
 MOLECULAR PHYSICS, 92 (3), 477-487 (1997). 
 A hybrid Gaussian and plane wave density functional scheme.
 https://doi.org/10.1080/002689797170220

 Perdew, JP; Burke, K; Ernzerhof, M. 
 PHYSICAL REVIEW LETTERS, 77 (18), 3865-3868 (1996). 
 Generalized gradient approximation made simple.
 https://doi.org/10.1103/PhysRevLett.77.3865

 Goedecker, S; Teter, M; Hutter, J. 
 PHYSICAL REVIEW B, 54 (3), 1703-1710 (1996). 
 Separable dual-space Gaussian pseudopotentials.
 https://doi.org/10.1103/PhysRevB.54.1703


 -------------------------------------------------------------------------------
 -                                                                             -
 -                                T I M I N G                                  -
 -                                                                             -
 -------------------------------------------------------------------------------
 SUBROUTINE                       CALLS  ASD         SELF TIME        TOTAL TIME
                                MAXIMUM       AVERAGE  MAXIMUM  AVERAGE  MAXIMUM
 CP2K                                 1  1.0    0.021    0.040  920.445  920.447
 qs_forces                            1  2.0    0.001    0.001  920.031  920.033
 qs_energies                          1  3.0    0.000    0.000  905.825  905.828
 scf_env_do_scf                       1  4.0    0.000    0.001  897.546  897.639
 scf_env_do_scf_inner_loop           71  5.0    0.003    0.006  897.543  897.636
 rebuild_ks_matrix                   72  7.0    0.000    0.000  567.684  567.741
 qs_ks_build_kohn_sham_matrix        72  8.0    0.011    0.013  567.684  567.741
 qs_ks_update_qs_env                 71  6.0    0.001    0.001  557.977  558.020
 pw_transfer                       3298 12.1    0.252    0.324  316.884  319.760
 fft_wrap_pw1pw2                   3298 13.1    0.035    0.042  316.633  319.519
 fft_wrap_pw1pw2_200               2866 14.4   26.991   30.760  313.436  316.407
 pw_poisson_solve                    72  9.0    0.021    0.030  268.426  268.492
 implicit_poisson_solver_mixed_      72 10.0    7.203    7.797  252.114  252.280
 fft3d_ps                          3298 15.1  134.800  145.082  235.791  239.223
 qs_rho_update_rho_low               72  6.0    0.001    0.001  218.491  218.509
 calculate_rho_elec                  72  7.0    0.394    0.422  218.491  218.508
 sum_up_and_integrate                72  9.0    1.121    1.223  204.815  204.883
 integrate_v_rspace                  72 10.0    0.002    0.002  203.694  203.858
 grid_collocate_task_list            72  8.0   96.458  188.486   96.458  188.486
 derive_fft                         342 12.2    0.024    0.028  177.168  178.358
 grid_integrate_task_list            72 11.0   89.545  174.645   89.545  174.645
 rs_pw_transfer                     580 10.5    0.007    0.007  121.022  151.355
 density_rs2pw                       72  8.0    0.005    0.005  120.060  150.555
 apply_P_operator                   270 11.2    2.529    2.919  142.578  143.499
 mp_waitany                       11384 12.4  100.947  130.863  100.947  130.863
 rs_pw_transfer_RS2PW_200            74 10.0    4.162    4.778   99.238  129.569
 mp_alltoall_d11v                  1024 10.3   87.690  115.832   87.690  115.832
 rs_gather_matrices                  72 11.0    0.269    0.297   86.371  114.656
 qs_scf_new_mos                      71  6.0    0.006    0.008   89.442   89.548
 qs_vxc_create                       72  9.0    0.002    0.003   84.968   85.938
 xc_vxc_pw_create                    72 10.0    1.926    2.406   84.966   85.936
 eigensolver                         71  7.0    0.006    0.009   80.609   80.681
 x_to_yz                           2062 16.3   44.443   51.033   68.899   71.419
 mp_alltoall_z22v                  3298 17.1   43.632   65.145   43.632   65.145
 xc_pw_derive                       432 12.0    0.007    0.009   57.197   60.411
 apply_poisson_operator_fft          72 11.0    0.001    0.001   54.664   54.949
 cp_fm_diag_elpa                     72  8.0    0.001    0.001   51.172   51.298
 cp_fm_diag_elpa_base                72  9.0   50.102   50.206   51.060   51.135
 xc_rho_set_and_dset_create          72 11.0    0.820    1.014   44.296   45.354
 yz_to_x                           1236 15.8   12.837   13.441   32.014   45.024
 xc_pw_divergence                    72 11.0    0.004    0.004   37.624   39.718
 apply_inv_laplace_operator_fft     173 11.5    1.425    1.552   38.245   39.371
 ps_implicit_compute_veps            72 11.0    0.867    1.027   37.992   38.766
 pw_scatter_p                      2062 15.3   34.936   38.761   34.936   38.761
 gspace_mixing                       70  6.0    0.383    0.410   34.156   34.177
 cp_fm_triangular_multiply          213  8.0   28.547   28.870   28.547   28.870
 pw_derive                         1458 13.1   27.721   28.835   27.721   28.835
 potential_pw2rs                     72 11.0    0.057    0.065   27.766   27.874
 ps_implicit_compute_error_fft       99 10.9    1.835    1.959   24.452   26.100
 broyden_mixing                      70  7.0   25.055   25.383   25.653   25.741
 pw_gather_p                       1236 14.8   18.557   19.337   18.557   19.337
 -------------------------------------------------------------------------------

 The number of warnings for this run is : 1
 
 -------------------------------------------------------------------------------
  **** **** ******  **  PROGRAM ENDED AT                 2023-12-03 02:48:55.413
 ***** ** ***  *** **   PROGRAM RAN ON                                     cu042
 **    ****   ******    PROGRAM RAN BY                                     jxzhu
 ***** **    ** ** **   PROGRAM PROCESS ID                                  7374
  **** **  *******  **  PROGRAM STOPPED IN /public/home/jxzhu/tmp_calc/04c0855f9
                                           8753fac23fde4df51ba20f3741a9e9a/calc/
                                           task.001.000006
