 DBCSR| CPU Multiplication driver                                           XSMM
 DBCSR| Multrec recursion limit                                              512
 DBCSR| Multiplication stack size                                           1000
 DBCSR| Maximum elements for images                                    UNLIMITED
 DBCSR| Multiplicative factor virtual images                                   1
 DBCSR| Use multiplication densification                                       T
 DBCSR| Multiplication size stacks                                             3
 DBCSR| Use memory pool for CPU allocation                                     F
 DBCSR| Number of 3D layers                                               SINGLE
 DBCSR| Use MPI memory allocation                                              F
 DBCSR| Use RMA algorithm                                                      F
 DBCSR| Use Communication thread                                               T
 DBCSR| Communication thread load                                             87
 DBCSR| MPI: My node id                                                        0
 DBCSR| MPI: Number of nodes                                                 128
 DBCSR| OMP: Current number of threads                                         1
 DBCSR| OMP: Max number of threads                                             1
 DBCSR| Split modifier for TAS multiplication algorithm                  1.0E+00


  **** **** ******  **  PROGRAM STARTED AT               2023-12-02 07:52:10.708
 ***** ** ***  *** **   PROGRAM STARTED ON                                 cu101
 **    ****   ******    PROGRAM STARTED BY                                 jxzhu
 ***** **    ** ** **   PROGRAM PROCESS ID                                 59482
  **** **  *******  **  PROGRAM STARTED IN /public/home/jxzhu/tmp_calc/1aadd47bc
                                           30e1925b38c1c3ef8be1e80231304cc/calc/
                                           001000.000/search_hi.000001

 CP2K| version string:                                       CP2K version 2022.1
 CP2K| source code revision number:                                  git:2caeb6f
 CP2K| cp2kflags: omp libint fftw3 libxc elpa parallel mpi3 scalapack cosma xsmm
 CP2K|             plumed2 spglib mkl sirius libvori libbqb
 CP2K| is freely available from                            https://www.cp2k.org/
 CP2K| Program compiled at                           Mon Jul 3 17:37:06 CST 2023
 CP2K| Program compiled on                                                 mu003
 CP2K| Program compiled for                                                local
 CP2K| Data directory path                             /public/home/jxzhu/basis/
 CP2K| Input file name                                                 input.inp
 
 GLOBAL| Force Environment number                                              1
 GLOBAL| Basis set file name                                        BASIS_MOLOPT
 GLOBAL| Potential file name                                      GTH_POTENTIALS
 GLOBAL| MM Potential file name                                     MM_POTENTIAL
 GLOBAL| Coordinate file name                                          coord.xyz
 GLOBAL| Method name                                                        CP2K
 GLOBAL| Project name                                                       cp2k
 GLOBAL| Run type                                                   ENERGY_FORCE
 GLOBAL| FFT library                                                       FFTW3
 GLOBAL| Diagonalization library                                            ELPA
 GLOBAL| Minimum number of eigenvectors for ELPA usage                        16
 GLOBAL| Orthonormality check for eigenvectors                          DISABLED
 GLOBAL| Matrix multiplication library                                     COSMA
 GLOBAL| All-to-all communication in single precision                          F
 GLOBAL| FFTs using library dependent lengths                                  T
 GLOBAL| Grid backend                                                       AUTO
 GLOBAL| Global print level                                               MEDIUM
 GLOBAL| MPI I/O enabled                                                       T
 GLOBAL| Total number of message passing processes                           128
 GLOBAL| Number of threads for this process                                    1
 GLOBAL| This output is from process                                           0
 GLOBAL| Stack size for threads created by OpenMP (OMP_STACKSIZE)        default
 GLOBAL| CPU model name                 Intel(R) Xeon(R) Gold 6338 CPU @ 2.00GHz
 GLOBAL| CPUID                                                              1003

 MEMORY| system memory details [Kb]
 MEMORY|                        rank 0           min           max       average
 MEMORY| MemTotal            263619172     263619172     263619172     263619172
 MEMORY| MemFree             221248864     221248864     222493340     221871102
 MEMORY| Buffers                    24            24            28            26
 MEMORY| Cached                1318692       1042596       1318692       1180644
 MEMORY| Slab                  1227480       1150944       1227480       1189212
 MEMORY| SReclaimable           224520        224520        226808        225664
 MEMORY| MemLikelyFree       222792100     222792100     223762772     223277436


 *** Fundamental physical constants (SI units) ***

 *** Literature: B. J. Mohr and B. N. Taylor,
 ***             CODATA recommended values of the fundamental physical
 ***             constants: 2006, Web Version 5.1
 ***             http://physics.nist.gov/constants

 Speed of light in vacuum [m/s]                             2.99792458000000E+08
 Magnetic constant or permeability of vacuum [N/A**2]       1.25663706143592E-06
 Electric constant or permittivity of vacuum [F/m]          8.85418781762039E-12
 Planck constant (h) [J*s]                                  6.62606896000000E-34
 Planck constant (h-bar) [J*s]                              1.05457162825177E-34
 Elementary charge [C]                                      1.60217648700000E-19
 Electron mass [kg]                                         9.10938215000000E-31
 Electron g factor [ ]                                     -2.00231930436220E+00
 Proton mass [kg]                                           1.67262163700000E-27
 Fine-structure constant                                    7.29735253760000E-03
 Rydberg constant [1/m]                                     1.09737315685270E+07
 Avogadro constant [1/mol]                                  6.02214179000000E+23
 Boltzmann constant [J/K]                                   1.38065040000000E-23
 Atomic mass unit [kg]                                      1.66053878200000E-27
 Bohr radius [m]                                            5.29177208590000E-11

 *** Conversion factors ***

 [u] -> [a.u.]                                              1.82288848426455E+03
 [Angstrom] -> [Bohr] = [a.u.]                              1.88972613288564E+00
 [a.u.] = [Bohr] -> [Angstrom]                              5.29177208590000E-01
 [a.u.] -> [s]                                              2.41888432650478E-17
 [a.u.] -> [fs]                                             2.41888432650478E-02
 [a.u.] -> [J]                                              4.35974393937059E-18
 [a.u.] -> [N]                                              8.23872205491840E-08
 [a.u.] -> [K]                                              3.15774647902944E+05
 [a.u.] -> [kJ/mol]                                         2.62549961709828E+03
 [a.u.] -> [kcal/mol]                                       6.27509468713739E+02
 [a.u.] -> [Pa]                                             2.94210107994716E+13
 [a.u.] -> [bar]                                            2.94210107994716E+08
 [a.u.] -> [atm]                                            2.90362800883016E+08
 [a.u.] -> [eV]                                             2.72113838565563E+01
 [a.u.] -> [Hz]                                             6.57968392072181E+15
 [a.u.] -> [1/cm] (wave numbers)                            2.19474631370540E+05
 [a.u./Bohr**2] -> [1/cm]                                   5.14048714338585E+03
 

 CELL_TOP| Volume [angstrom^3]:                                     17614.982639
 CELL_TOP| Vector a [angstrom    16.869     0.000     0.000   |a| =    16.869000
 CELL_TOP| Vector b [angstrom    -8.434    14.609     0.000   |b| =    16.869015
 CELL_TOP| Vector c [angstrom     0.000     0.000    71.478   |c| =    71.478000
 CELL_TOP| Angle (b,c), alpha [degree]:                                90.000000
 CELL_TOP| Angle (a,c), beta  [degree]:                                90.000000
 CELL_TOP| Angle (a,b), gamma [degree]:                               119.999970
 CELL_TOP| Numerically orthorhombic:                                          NO
 
 GENERATE|  Preliminary Number of Bonds generated:                             0
 GENERATE|  Achieved consistency in connectivity generation.

 CELL| Volume [angstrom^3]:                                         17614.982639
 CELL| Vector a [angstrom]:      16.869     0.000     0.000   |a| =    16.869000
 CELL| Vector b [angstrom]:      -8.434    14.609     0.000   |b| =    16.869015
 CELL| Vector c [angstrom]:       0.000     0.000    71.478   |c| =    71.478000
 CELL| Angle (b,c), alpha [degree]:                                    90.000000
 CELL| Angle (a,c), beta  [degree]:                                    90.000000
 CELL| Angle (a,b), gamma [degree]:                                   119.999970
 CELL| Numerically orthorhombic:                                              NO

 CELL_REF| Volume [angstrom^3]:                                     17614.982639
 CELL_REF| Vector a [angstrom    16.869     0.000     0.000   |a| =    16.869000
 CELL_REF| Vector b [angstrom    -8.434    14.609     0.000   |b| =    16.869015
 CELL_REF| Vector c [angstrom     0.000     0.000    71.478   |c| =    71.478000
 CELL_REF| Angle (b,c), alpha [degree]:                                90.000000
 CELL_REF| Angle (a,c), beta  [degree]:                                90.000000
 CELL_REF| Angle (a,b), gamma [degree]:                               119.999970
 CELL_REF| Numerically orthorhombic:                                          NO

 *******************************************************************************
 *******************************************************************************
 **                                                                           **
 **     #####                         ##              ##                      **
 **    ##   ##            ##          ##              ##                      **
 **   ##     ##                       ##            ######                    **
 **   ##     ##  ##   ##  ##   #####  ##  ##   ####   ##    #####    #####    **
 **   ##     ##  ##   ##  ##  ##      ## ##   ##      ##   ##   ##  ##   ##   **
 **   ##  ## ##  ##   ##  ##  ##      ####     ###    ##   ######   ######    **
 **    ##  ###   ##   ##  ##  ##      ## ##      ##   ##   ##       ##        **
 **     #######   #####   ##   #####  ##  ##  ####    ##    #####   ##        **
 **           ##                                                    ##        **
 **                                                                           **
 **                                                ... make the atoms dance   **
 **                                                                           **
 **            Copyright (C) by CP2K developers group (2000-2022)             **
 **                      J. Chem. Phys. 152, 194103 (2020)                    **
 **                                                                           **
 *******************************************************************************

 DFT| Spin restricted Kohn-Sham (RKS) calculation                            RKS
 DFT| Multiplicity                                                             1
 DFT| Number of spin states                                                    1
 DFT| Charge                                                                   0
 DFT| Self-interaction correction (SIC)                                       NO
 DFT| Cutoffs: density                                              1.000000E-10
 DFT|          gradient                                             1.000000E-10
 DFT|          tau                                                  1.000000E-10
 DFT|          cutoff_smoothing_range                               0.000000E+00
 DFT| XC density smoothing                                                  NONE
 DFT| XC derivatives                                                          PW

 FUNCTIONAL| PBE:
 FUNCTIONAL| J.P.Perdew, K.Burke, M.Ernzerhof, Phys. Rev. Letter, vol. 77, n 18,
 FUNCTIONAL|  pp. 3865-3868, (1996){spin unpolarized}                           

 vdW POTENTIAL|                                                   Pair Potential
 vdW POTENTIAL|          DFT-D3 (Version 3.1)
 vdW POTENTIAL|          Potential Form: S. Grimme et al, JCP 132: 154104 (2010)
 vdW POTENTIAL|          Zero Damping
 vdW POTENTIAL|          Cutoff Radius [Bohr]:                             20.00
 vdW POTENTIAL|          s6 Scaling Factor:                               1.0000
 vdW POTENTIAL|          sr6 Scaling Factor:                              1.2170
 vdW POTENTIAL|          s8 Scaling Factor:                               0.7220
 vdW POTENTIAL|          Cutoff for CN calculation:                   0.1000E-05

 QS| Method:                                                                 GPW
 QS| Density plane wave grid type                        NON-SPHERICAL FULLSPACE
 QS| Number of grid levels:                                                    4
 QS| Density cutoff [a.u.]:                                                200.0
 QS| Multi grid cutoff [a.u.]: 1) grid level                               200.0
 QS|                           2) grid level                                66.7
 QS|                           3) grid level                                22.2
 QS|                           4) grid level                                 7.4
 QS| Grid level progression factor:                                          3.0
 QS| Relative density cutoff [a.u.]:                                        20.0
 QS| Interaction thresholds: eps_pgf_orb:                                3.2E-07
 QS|                         eps_filter_matrix:                          0.0E+00
 QS|                         eps_core_charge:                            1.0E-15
 QS|                         eps_rho_gspace:                             1.0E-13
 QS|                         eps_rho_rspace:                             1.0E-13
 QS|                         eps_gvg_rspace:                             3.2E-07
 QS|                         eps_ppl:                                    1.0E-02
 QS|                         eps_ppnl:                                   3.2E-09


 ATOMIC KIND INFORMATION

  1. Atomic kind: O                                     Number of atoms:     101

     Orbital Basis Set                                        DZVP-MOLOPT-SR-GTH

       Number of orbital shell sets:                                           1
       Number of orbital shells:                                               5
       Number of primitive Cartesian functions:                                5
       Number of Cartesian basis functions:                                   14
       Number of spherical basis functions:                                   13
       Norm type:                                                              2

       Normalised Cartesian orbitals:

                        Set   Shell   Orbital            Exponent    Coefficient

                          1       1    2s               10.389228       0.396646
                                                         3.849621       0.208811
                                                         1.388401      -0.301641
                                                         0.496955      -0.274061
                                                         0.162492      -0.033677

                          1       2    3s               10.389228       0.303673
                                                         3.849621       0.240943
                                                         1.388401      -0.313066
                                                         0.496955      -0.043055
                                                         0.162492       0.213991

                          1       3    3px              10.389228      -1.530415
                                                         3.849621      -1.371928
                                                         1.388401      -0.761951
                                                         0.496955      -0.253695
                                                         0.162492      -0.035541
                          1       3    3py              10.389228      -1.530415
                                                         3.849621      -1.371928
                                                         1.388401      -0.761951
                                                         0.496955      -0.253695
                                                         0.162492      -0.035541
                          1       3    3pz              10.389228      -1.530415
                                                         3.849621      -1.371928
                                                         1.388401      -0.761951
                                                         0.496955      -0.253695
                                                         0.162492      -0.035541

                          1       4    4px              10.389228      -0.565392
                                                         3.849621      -0.038231
                                                         1.388401      -0.382373
                                                         0.496955       0.179070
                                                         0.162492       0.122714
                          1       4    4py              10.389228      -0.565392
                                                         3.849621      -0.038231
                                                         1.388401      -0.382373
                                                         0.496955       0.179070
                                                         0.162492       0.122714
                          1       4    4pz              10.389228      -0.565392
                                                         3.849621      -0.038231
                                                         1.388401      -0.382373
                                                         0.496955       0.179070
                                                         0.162492       0.122714

                          1       5    4dx2             10.389228       1.867377
                                                         3.849621       0.670994
                                                         1.388401       1.353441
                                                         0.496955       0.273538
                                                         0.162492       0.006620
                          1       5    4dxy             10.389228       3.234392
                                                         3.849621       1.162195
                                                         1.388401       2.344229
                                                         0.496955       0.473781
                                                         0.162492       0.011466
                          1       5    4dxz             10.389228       3.234392
                                                         3.849621       1.162195
                                                         1.388401       2.344229
                                                         0.496955       0.473781
                                                         0.162492       0.011466
                          1       5    4dy2             10.389228       1.867377
                                                         3.849621       0.670994
                                                         1.388401       1.353441
                                                         0.496955       0.273538
                                                         0.162492       0.006620
                          1       5    4dyz             10.389228       3.234392
                                                         3.849621       1.162195
                                                         1.388401       2.344229
                                                         0.496955       0.473781
                                                         0.162492       0.011466
                          1       5    4dz2             10.389228       1.867377
                                                         3.849621       0.670994
                                                         1.388401       1.353441
                                                         0.496955       0.273538
                                                         0.162492       0.006620

       Atomic covalent radius [Angstrom]:                                  0.730

       Atomic van der Waals radius [Angstrom]:                             1.520

     GTH Potential information for                                    GTH-PBE-q6

       Description:                       Goedecker-Teter-Hutter pseudopotential
                                           Goedecker et al., PRB 54, 1703 (1996)
                                          Hartwigsen et al., PRB 58, 3641 (1998)
                                                      Krack, TCA 114, 145 (2005)

       Gaussian exponent of the core charge distribution:               8.360253
       Electronic configuration (s p d ...):                               2   4

       Parameters of the local part of the GTH pseudopotential:

                          rloc        C1          C2          C3          C4
                        0.244554  -16.667215    2.487311

       Parameters of the non-local part of the GTH pseudopotential:

                   l      r(l)      h(i,j,l)

                   0    0.220956   18.337458
                   1    0.211332

  2. Atomic kind: H                                     Number of atoms:     202

     Orbital Basis Set                                        DZVP-MOLOPT-SR-GTH

       Number of orbital shell sets:                                           1
       Number of orbital shells:                                               3
       Number of primitive Cartesian functions:                                5
       Number of Cartesian basis functions:                                    5
       Number of spherical basis functions:                                    5
       Norm type:                                                              2

       Normalised Cartesian orbitals:

                        Set   Shell   Orbital            Exponent    Coefficient

                          1       1    2s               10.068468      -0.133023
                                                         2.680223      -0.177618
                                                         0.791502      -0.258419
                                                         0.239116      -0.107525
                                                         0.082193      -0.014019

                          1       2    3s               10.068468       0.344673
                                                         2.680223       1.819821
                                                         0.791502      -0.999069
                                                         0.239116       0.017430
                                                         0.082193       0.082660

                          1       3    3px              10.068468       0.155326
                                                         2.680223       0.367157
                                                         0.791502       0.311480
                                                         0.239116       0.080105
                                                         0.082193       0.033440
                          1       3    3py              10.068468       0.155326
                                                         2.680223       0.367157
                                                         0.791502       0.311480
                                                         0.239116       0.080105
                                                         0.082193       0.033440
                          1       3    3pz              10.068468       0.155326
                                                         2.680223       0.367157
                                                         0.791502       0.311480
                                                         0.239116       0.080105
                                                         0.082193       0.033440

       Atomic covalent radius [Angstrom]:                                  0.320

       Atomic van der Waals radius [Angstrom]:                             1.090

     GTH Potential information for                                    GTH-PBE-q1

       Description:                       Goedecker-Teter-Hutter pseudopotential
                                           Goedecker et al., PRB 54, 1703 (1996)
                                          Hartwigsen et al., PRB 58, 3641 (1998)
                                                      Krack, TCA 114, 145 (2005)

       Gaussian exponent of the core charge distribution:              12.500000
       Electronic configuration (s p d ...):                                   1

       Parameters of the local part of the GTH pseudopotential:

                          rloc        C1          C2          C3          C4
                        0.200000   -4.178900    0.724463

  3. Atomic kind: Pt                                    Number of atoms:     216

     Orbital Basis Set                      DZVP-A5-Q10-323-MOL-T1-DERIVED_SET-1

       Number of orbital shell sets:                                           1
       Number of orbital shells:                                               6
       Number of primitive Cartesian functions:                                5
       Number of Cartesian basis functions:                                   23
       Number of spherical basis functions:                                   20
       Norm type:                                                              2

       Normalised Cartesian orbitals:

                        Set   Shell   Orbital            Exponent    Coefficient

                          1       1    2s                2.521825       0.177473
                                                         1.453920      -0.063399
                                                         0.614053      -0.407089
                                                         0.232656       0.262254
                                                         0.074788       0.047371

                          1       2    3s                2.521825      -0.049056
                                                         1.453920       0.044904
                                                         0.614053      -0.009756
                                                         0.232656      -0.144709
                                                         0.074788       0.144085

                          1       3    3px               2.521825      -0.317572
                                                         1.453920       0.534826
                                                         0.614053      -0.489458
                                                         0.232656       0.245631
                                                         0.074788       0.018221
                          1       3    3py               2.521825      -0.317572
                                                         1.453920       0.534826
                                                         0.614053      -0.489458
                                                         0.232656       0.245631
                                                         0.074788       0.018221
                          1       3    3pz               2.521825      -0.317572
                                                         1.453920       0.534826
                                                         0.614053      -0.489458
                                                         0.232656       0.245631
                                                         0.074788       0.018221

                          1       4    4dx2              2.521825       3.008522
                                                         1.453920      -1.224251
                                                         0.614053       0.225691
                                                         0.232656       0.125144
                                                         0.074788      -0.015348
                          1       4    4dxy              2.521825       5.210912
                                                         1.453920      -2.120465
                                                         0.614053       0.390909
                                                         0.232656       0.216756
                                                         0.074788      -0.026584
                          1       4    4dxz              2.521825       5.210912
                                                         1.453920      -2.120465
                                                         0.614053       0.390909
                                                         0.232656       0.216756
                                                         0.074788      -0.026584
                          1       4    4dy2              2.521825       3.008522
                                                         1.453920      -1.224251
                                                         0.614053       0.225691
                                                         0.232656       0.125144
                                                         0.074788      -0.015348
                          1       4    4dyz              2.521825       5.210912
                                                         1.453920      -2.120465
                                                         0.614053       0.390909
                                                         0.232656       0.216756
                                                         0.074788      -0.026584
                          1       4    4dz2              2.521825       3.008522
                                                         1.453920      -1.224251
                                                         0.614053       0.225691
                                                         0.232656       0.125144
                                                         0.074788      -0.015348

                          1       5    5dx2              2.521825       0.698026
                                                         1.453920      -1.511486
                                                         0.614053      -0.335394
                                                         0.232656      -0.025564
                                                         0.074788      -0.002699
                          1       5    5dxy              2.521825       1.209017
                                                         1.453920      -2.617970
                                                         0.614053      -0.580920
                                                         0.232656      -0.044277
                                                         0.074788      -0.004674
                          1       5    5dxz              2.521825       1.209017
                                                         1.453920      -2.617970
                                                         0.614053      -0.580920
                                                         0.232656      -0.044277
                                                         0.074788      -0.004674
                          1       5    5dy2              2.521825       0.698026
                                                         1.453920      -1.511486
                                                         0.614053      -0.335394
                                                         0.232656      -0.025564
                                                         0.074788      -0.002699
                          1       5    5dyz              2.521825       1.209017
                                                         1.453920      -2.617970
                                                         0.614053      -0.580920
                                                         0.232656      -0.044277
                                                         0.074788      -0.004674
                          1       5    5dz2              2.521825       0.698026
                                                         1.453920      -1.511486
                                                         0.614053      -0.335394
                                                         0.232656      -0.025564
                                                         0.074788      -0.002699

                          1       6    6dx2              2.521825       0.831079
                                                         1.453920      -0.709226
                                                         0.614053      -0.137351
                                                         0.232656       0.068642
                                                         0.074788       0.011745
                          1       6    6dxy              2.521825       1.439472
                                                         1.453920      -1.228415
                                                         0.614053      -0.237899
                                                         0.232656       0.118891
                                                         0.074788       0.020343
                          1       6    6dxz              2.521825       1.439472
                                                         1.453920      -1.228415
                                                         0.614053      -0.237899
                                                         0.232656       0.118891
                                                         0.074788       0.020343
                          1       6    6dy2              2.521825       0.831079
                                                         1.453920      -0.709226
                                                         0.614053      -0.137351
                                                         0.232656       0.068642
                                                         0.074788       0.011745
                          1       6    6dyz              2.521825       1.439472
                                                         1.453920      -1.228415
                                                         0.614053      -0.237899
                                                         0.232656       0.118891
                                                         0.074788       0.020343
                          1       6    6dz2              2.521825       0.831079
                                                         1.453920      -0.709226
                                                         0.614053      -0.137351
                                                         0.232656       0.068642
                                                         0.074788       0.011745

       Atomic covalent radius [Angstrom]:                                  1.300

       Atomic van der Waals radius [Angstrom]:                             1.750

     GTH Potential information for                                   GTH-PBE-q10

       Description:                       Goedecker-Teter-Hutter pseudopotential
                                           Goedecker et al., PRB 54, 1703 (1996)
                                          Hartwigsen et al., PRB 58, 3641 (1998)
                                                      Krack, TCA 114, 145 (2005)

       Gaussian exponent of the core charge distribution:               1.317676
       Electronic configuration (s p d ...):                           1   0   9

       Parameters of the local part of the GTH pseudopotential:

                          rloc        C1          C2          C3          C4
                        0.616000   11.313635

       Parameters of the non-local part of the GTH pseudopotential:

                   l      r(l)      h(i,j,l)

                   0    0.550904    4.733491   -1.784594
                                   -1.784594    2.303901
                   1    0.674138    2.534798   -1.778066
                                   -1.778066    2.103836
                   2    0.457392   -7.264011    2.558665
                                    2.558665   -2.901253


 MOLECULE KIND INFORMATION


 All atoms are their own molecule, skipping detailed information


 TOTAL NUMBERS AND MAXIMUM NUMBERS

  Total number of            - Atomic kinds:                                   3
                             - Atoms:                                        519
                             - Shell sets:                                   519
                             - Shells:                                      2407
                             - Primitive Cartesian functions:               2595
                             - Cartesian basis functions:                   7392
                             - Spherical basis functions:                   6643

  Maximum angular momentum of- Orbital basis functions:                        2
                             - Local part of the GTH pseudopotential:          2
                             - Non-local part of the GTH pseudopotential:      4


 MODULE QUICKSTEP:  ATOMIC COORDINATES IN angstrom

 Atom  Kind  Element       X           Y           Z          Z(eff)       Mass
    1   1 O    8       9.380000   -5.890000   37.017999       6.0000     15.9994
    2   2 H    1      10.050000   -5.350000   36.518001       1.0000      1.0079
    3   2 H    1       8.490001   -5.410000   36.947999       1.0000      1.0079
    4   1 O    8      11.910001   10.550001   37.838001       6.0000     15.9994
    5   2 H    1      11.980001   10.180000   36.917999       1.0000      1.0079
    6   2 H    1      11.830001    9.740001   38.387998       1.0000      1.0079
    7   1 O    8      -1.120000   -3.740000   32.218000       6.0000     15.9994
    8   2 H    1      -1.580000   -3.320000   33.048000       1.0000      1.0079
    9   2 H    1      -0.540000   -2.990000   31.787999       1.0000      1.0079
   10   1 O    8      -8.680000  -21.980001   34.657998       6.0000     15.9994
   11   2 H    1      -9.370001  -21.630001   33.967998       1.0000      1.0079
   12   2 H    1      -7.750000  -21.600000   34.287999       1.0000      1.0079
   13   1 O    8      11.610001   -3.450000   32.827998       6.0000     15.9994
   14   2 H    1      12.290001   -2.760000   33.068000       1.0000      1.0079
   15   2 H    1      10.740000   -3.290000   33.317998       1.0000      1.0079
   16   1 O    8     -11.170001    0.750000   34.517999       6.0000     15.9994
   17   2 H    1     -11.430000    0.460000   33.587997       1.0000      1.0079
   18   2 H    1     -11.830001    1.300000   34.927999       1.0000      1.0079
   19   1 O    8      -3.520000   -9.460000   36.588001       6.0000     15.9994
   20   2 H    1      -2.660000   -9.850000   36.257999       1.0000      1.0079
   21   2 H    1      -3.300000   -8.530001   36.718000       1.0000      1.0079
   22   1 O    8      17.320002    4.330000   37.497999       6.0000     15.9994
   23   2 H    1      16.380001    4.470000   37.787998       1.0000      1.0079
   24   2 H    1      17.360001    3.560000   36.857999       1.0000      1.0079
   25   1 O    8     -15.550001   28.690002   37.248000       6.0000     15.9994
   26   2 H    1     -15.220001   28.210001   36.447997       1.0000      1.0079
   27   2 H    1       0.400000   28.300001   37.357999       1.0000      1.0079
   28   1 O    8      -9.630001   18.520000   29.907996       6.0000     15.9994
   29   2 H    1      -9.450001   18.900002   29.057998       1.0000      1.0079
   30   2 H    1     -10.670000   18.570002   29.997997       1.0000      1.0079
   31   1 O    8       4.260000    2.120000   36.388000       6.0000     15.9994
   32   2 H    1       4.520000    1.720000   37.267997       1.0000      1.0079
   33   2 H    1       3.280000    2.260000   36.497999       1.0000      1.0079
   34   1 O    8      -3.020000    8.030001   30.757999       6.0000     15.9994
   35   2 H    1      -2.860000    8.240001   31.718000       1.0000      1.0079
   36   2 H    1      -2.160000    7.660000   30.377998       1.0000      1.0079
   37   1 O    8       2.720000   -1.830000   39.237998       6.0000     15.9994
   38   2 H    1       3.080000   -2.610000   38.757999       1.0000      1.0079
   39   2 H    1       2.290000   -1.220000   38.577998       1.0000      1.0079
   40   1 O    8       1.420000    2.030000   36.027999       6.0000     15.9994
   41   2 H    1       1.540000    1.220000   36.667999       1.0000      1.0079
   42   2 H    1       1.320000    1.600000   35.147998       1.0000      1.0079
   43   1 O    8      -9.160001    8.930000   36.827998       6.0000     15.9994
   44   2 H    1      -8.920000    9.760000   36.388000       1.0000      1.0079
   45   2 H    1      -9.000000    8.380001   35.987998       1.0000      1.0079
   46   1 O    8     -12.490001   11.880001   36.857999       6.0000     15.9994
   47   2 H    1     -21.570000   27.120001   37.157998       1.0000      1.0079
   48   2 H    1     -12.020000   11.580001   37.717998       1.0000      1.0079
   49   1 O    8      -0.060000    1.450000   30.437999       6.0000     15.9994
   50   2 H    1      -0.450000    2.220000   29.967998       1.0000      1.0079
   51   2 H    1      -0.510000    0.550000   30.197997       1.0000      1.0079
   52   1 O    8     -18.010002   17.310001   33.087999       6.0000     15.9994
   53   2 H    1     -18.540001   16.680000   33.658000       1.0000      1.0079
   54   2 H    1     -18.640001   18.070000   32.897998       1.0000      1.0079
   55   1 O    8       2.070000   -1.910000   35.147998       6.0000     15.9994
   56   2 H    1       2.100000   -1.580000   34.207998       1.0000      1.0079
   57   2 H    1       2.550000   -2.790000   35.127998       1.0000      1.0079
   58   1 O    8      36.830002   -7.110000   36.437999       6.0000     15.9994
   59   2 H    1      37.090000   -6.420000   35.777999       1.0000      1.0079
   60   2 H    1      36.300003   -6.660000   37.237998       1.0000      1.0079
   61   1 O    8       6.400001   19.370001   38.167999       6.0000     15.9994
   62   2 H    1       5.950000   18.710001   37.548000       1.0000      1.0079
   63   2 H    1       6.290000   19.190002   39.107997       1.0000      1.0079
   64   1 O    8      15.320001   -0.940000   29.857997       6.0000     15.9994
   65   2 H    1      14.670001   -0.430000   30.327998       1.0000      1.0079
   66   2 H    1      15.240001   -0.730000   28.928001       1.0000      1.0079
   67   1 O    8       8.890000   12.450000   30.947997       6.0000     15.9994
   68   2 H    1       9.280001   11.970000   30.178001       1.0000      1.0079
   69   2 H    1       8.190001   12.870001   30.458000       1.0000      1.0079
   70   1 O    8       5.090000   14.690001   33.757999       6.0000     15.9994
   71   2 H    1       4.100000   14.810000   33.558000       1.0000      1.0079
   72   2 H    1       5.540000   15.360001   33.177999       1.0000      1.0079
   73   1 O    8     -22.830000    0.660000   33.007999       6.0000     15.9994
   74   2 H    1     -22.340002    1.490000   32.777999       1.0000      1.0079
   75   2 H    1     -23.140001    0.370000   32.148000       1.0000      1.0079
   76   1 O    8       3.390000  -21.650002   33.457998       6.0000     15.9994
   77   2 H    1       3.390000  -22.520000   34.018001       1.0000      1.0079
   78   2 H    1       4.270000  -21.330002   33.568000       1.0000      1.0079
   79   1 O    8       4.920000  -14.220000   36.697999       6.0000     15.9994
   80   2 H    1       5.170000  -14.440001   35.737998       1.0000      1.0079
   81   2 H    1       5.760000  -14.540001   37.117999       1.0000      1.0079
   82   1 O    8     -19.040001   -4.500000   30.057998       6.0000     15.9994
   83   2 H    1     -18.730001   -4.000000   29.277999       1.0000      1.0079
   84   2 H    1     -18.550001   -4.240000   30.907998       1.0000      1.0079
   85   1 O    8      24.280003    4.420000   36.317998       6.0000     15.9994
   86   2 H    1      24.350002    4.870000   35.478000       1.0000      1.0079
   87   2 H    1      24.740002    4.920000   37.017999       1.0000      1.0079
   88   1 O    8       2.850000    7.660000   30.478000       6.0000     15.9994
   89   2 H    1       3.060000    7.510000   31.427999       1.0000      1.0079
   90   2 H    1       3.210000    8.620001   30.417999       1.0000      1.0079
   91   1 O    8     -11.220001   21.960001   37.768001       6.0000     15.9994
   92   2 H    1     -10.820000   21.000002   37.697997       1.0000      1.0079
   93   2 H    1     -12.030001   21.990002   37.167999       1.0000      1.0079
   94   1 O    8       4.380000   -4.130000   29.467998       6.0000     15.9994
   95   2 H    1      -3.570000    9.640000   29.877998       1.0000      1.0079
   96   2 H    1       4.880000   -3.340000   29.888000       1.0000      1.0079
   97   1 O    8      14.130001   -2.400000   34.517999       6.0000     15.9994
   98   2 H    1      13.620001   -2.300000   35.367999       1.0000      1.0079
   99   2 H    1      14.010000   -1.500000   34.097999       1.0000      1.0079
  100   1 O    8      16.940001    5.400000   31.737998       6.0000     15.9994
  101   2 H    1      17.180000    6.090000   31.077998       1.0000      1.0079
  102   2 H    1      16.360001    4.770000   31.208000       1.0000      1.0079
  103   1 O    8      23.100002    8.350000   33.037999       6.0000     15.9994
  104   2 H    1      23.780001    9.120001   32.957998       1.0000      1.0079
  105   2 H    1      23.080002    7.970000   32.127998       1.0000      1.0079
  106   1 O    8     -15.290001   17.960001   39.978000       6.0000     15.9994
  107   2 H    1     -15.720000   18.760000   39.548000       1.0000      1.0079
  108   2 H    1     -14.900002   18.290001   40.807998       1.0000      1.0079
  109   1 O    8       3.700000   -8.610001   33.237998       6.0000     15.9994
  110   2 H    1       3.920000   -8.740000   34.137998       1.0000      1.0079
  111   2 H    1       4.500000   -8.210000   32.808000       1.0000      1.0079
  112   1 O    8      32.530003   -6.820001   30.687999       6.0000     15.9994
  113   2 H    1      32.340004   -7.620000   30.167999       1.0000      1.0079
  114   2 H    1      32.250000   -6.100000   30.077998       1.0000      1.0079
  115   1 O    8     -31.310001   28.130001   32.647998       6.0000     15.9994
  116   2 H    1     -14.960001   27.810001   31.888000       1.0000      1.0079
  117   2 H    1     -31.620003   29.070000   32.717998       1.0000      1.0079
  118   1 O    8      -3.300000    3.250000   36.497999       6.0000     15.9994
  119   2 H    1      -3.370000    2.300000   36.567998       1.0000      1.0079
  120   2 H    1      -2.860000    3.420000   35.638000       1.0000      1.0079
  121   1 O    8       2.420000   14.160000   30.048000       6.0000     15.9994
  122   2 H    1       1.720000   14.570000   29.527999       1.0000      1.0079
  123   2 H    1       2.160000   13.170000   30.007999       1.0000      1.0079
  124   1 O    8       3.670000   17.690001   32.638000       6.0000     15.9994
  125   2 H    1       2.850000   18.160002   32.908000       1.0000      1.0079
  126   2 H    1       3.690000   17.800001   31.687999       1.0000      1.0079
  127   1 O    8      15.280001   10.920000   33.217998       6.0000     15.9994
  128   2 H    1      15.140000   11.510000   32.437997       1.0000      1.0079
  129   2 H    1      14.880000   11.180000   34.088001       1.0000      1.0079
  130   1 O    8      10.870000   15.730000   29.757999       6.0000     15.9994
  131   2 H    1      11.150000   16.310001   28.947997       1.0000      1.0079
  132   2 H    1       9.890000   15.960001   29.927997       1.0000      1.0079
  133   1 O    8     -20.490000   22.900002   36.798000       6.0000     15.9994
  134   2 H    1     -21.190002   23.220001   36.208000       1.0000      1.0079
  135   2 H    1     -19.580000   23.260002   36.617999       1.0000      1.0079
  136   1 O    8     -12.400000    8.470000   39.467998       6.0000     15.9994
  137   2 H    1     -13.400001    8.680000   39.357999       1.0000      1.0079
  138   2 H    1     -12.070000    8.190001   38.577998       1.0000      1.0079
  139   1 O    8       1.590000   18.820002   33.787999       6.0000     15.9994
  140   2 H    1       9.960001    3.710000   34.657998       1.0000      1.0079
  141   2 H    1     -16.120001   18.490002   33.457998       1.0000      1.0079
  142   1 O    8       5.950000  -10.690001   33.977998       6.0000     15.9994
  143   2 H    1       5.070000  -10.850000   33.417999       1.0000      1.0079
  144   2 H    1       6.160001   -9.770000   33.977998       1.0000      1.0079
  145   1 O    8      -2.930000    8.720000   33.328000       6.0000     15.9994
  146   2 H    1      -2.210000    8.120001   33.687997       1.0000      1.0079
  147   2 H    1      -2.380000    9.570000   33.097999       1.0000      1.0079
  148   1 O    8       4.910000   16.110001   39.958000       6.0000     15.9994
  149   2 H    1       4.320000   15.560001   40.597999       1.0000      1.0079
  150   2 H    1       4.350000   16.280001   39.117999       1.0000      1.0079
  151   1 O    8     -13.860001   -1.320000   29.267997       6.0000     15.9994
  152   2 H    1     -14.110001   -0.330000   29.498000       1.0000      1.0079
  153   2 H    1     -12.930001   -1.410000   29.617999       1.0000      1.0079
  154   1 O    8      -1.630000    9.800000   37.318000       6.0000     15.9994
  155   2 H    1      -2.090000    8.950001   37.458000       1.0000      1.0079
  156   2 H    1      -1.950000   10.360001   38.077998       1.0000      1.0079
  157   1 O    8       5.650000   -3.380000   35.437999       6.0000     15.9994
  158   2 H    1       5.540000   -2.510000   35.898000       1.0000      1.0079
  159   2 H    1       6.180000   -3.990000   36.097999       1.0000      1.0079
  160   1 O    8      -7.480001    2.630000   36.027999       6.0000     15.9994
  161   2 H    1      -7.760000    1.660000   35.987998       1.0000      1.0079
  162   2 H    1      -8.300000    3.210000   36.217998       1.0000      1.0079
  163   1 O    8       7.370000   16.270000   32.917999       6.0000     15.9994
  164   2 H    1      16.000000    1.680000   31.987998       1.0000      1.0079
  165   2 H    1       7.050000   17.160000   33.127998       1.0000      1.0079
  166   1 O    8       9.930000   15.810001   33.537999       6.0000     15.9994
  167   2 H    1      10.160000   16.740000   33.097999       1.0000      1.0079
  168   2 H    1       8.920000   15.710001   33.328000       1.0000      1.0079
  169   1 O    8       5.280000   -1.930000   30.568000       6.0000     15.9994
  170   2 H    1       5.140000   -1.310000   31.388000       1.0000      1.0079
  171   2 H    1       6.270000   -1.750000   30.437999       1.0000      1.0079
  172   1 O    8     -15.560001   -6.640000   38.547998       6.0000     15.9994
  173   2 H    1     -15.980000   -6.620001   39.437999       1.0000      1.0079
  174   2 H    1     -16.270000   -6.190000   37.927997       1.0000      1.0079
  175   1 O    8       4.510000   18.520000   30.197997       6.0000     15.9994
  176   2 H    1       3.860000   18.410000   29.477996       1.0000      1.0079
  177   2 H    1      12.770000    4.930000   30.237998       1.0000      1.0079
  178   1 O    8       0.690000    6.400001   35.767999       6.0000     15.9994
  179   2 H    1       0.720000    5.700001   36.407998       1.0000      1.0079
  180   2 H    1       0.660000    7.240000   36.257999       1.0000      1.0079
  181   1 O    8      -2.910000   -3.450000   39.287999       6.0000     15.9994
  182   2 H    1      -3.530000   -3.160000   39.987998       1.0000      1.0079
  183   2 H    1      -3.190000   -4.440001   39.237998       1.0000      1.0079
  184   1 O    8       3.970000    3.790000   30.568000       6.0000     15.9994
  185   2 H    1       3.140000    3.620000   31.117997       1.0000      1.0079
  186   2 H    1       4.360000    2.910000   30.338001       1.0000      1.0079
  187   1 O    8      13.270000   14.470000   32.287999       6.0000     15.9994
  188   2 H    1      13.490001   15.100001   31.497999       1.0000      1.0079
  189   2 H    1      12.340001   14.100000   32.307998       1.0000      1.0079
  190   1 O    8      11.820001   16.320002   39.508001       6.0000     15.9994
  191   2 H    1      12.040001   17.230000   39.257999       1.0000      1.0079
  192   2 H    1      -4.210001   15.790001   39.617999       1.0000      1.0079
  193   1 O    8      -6.640000   -3.560000   28.917999       6.0000     15.9994
  194   2 H    1      -5.880000   -3.960000   29.397998       1.0000      1.0079
  195   2 H    1      -7.550001   -3.910000   29.327998       1.0000      1.0079
  196   1 O    8       6.690001    1.430000   37.998000       6.0000     15.9994
  197   2 H    1       7.080000    2.080000   37.347999       1.0000      1.0079
  198   2 H    1       6.660000    0.500000   37.657998       1.0000      1.0079
  199   1 O    8      10.450001    8.130000   33.287998       6.0000     15.9994
  200   2 H    1      10.470000    8.330001   32.267997       1.0000      1.0079
  201   2 H    1      10.970000    7.250000   33.428001       1.0000      1.0079
  202   1 O    8      -0.340000   10.110001   29.917999       6.0000     15.9994
  203   2 H    1      -9.420000   24.920002   29.177997       1.0000      1.0079
  204   2 H    1      -0.300000    9.110001   30.027999       1.0000      1.0079
  205   1 O    8       9.360001   -3.090000   34.548000       6.0000     15.9994
  206   2 H    1       0.180000   11.210001   34.018001       1.0000      1.0079
  207   2 H    1       0.610000   12.460001   34.708000       1.0000      1.0079
  208   1 O    8      11.440001   10.050000   34.958000       6.0000     15.9994
  209   2 H    1      11.090001    9.370001   34.377998       1.0000      1.0079
  210   2 H    1      12.400000   10.240001   34.777999       1.0000      1.0079
  211   1 O    8     -18.620001   11.640000   39.197999       6.0000     15.9994
  212   2 H    1     -18.770000   11.230000   40.138000       1.0000      1.0079
  213   2 H    1     -19.330002   12.400000   39.107997       1.0000      1.0079
  214   1 O    8      10.840001   -1.020000   37.937999       6.0000     15.9994
  215   2 H    1      10.920000   -0.060000   38.077998       1.0000      1.0079
  216   2 H    1      10.270000   -1.400000   38.638000       1.0000      1.0079
  217   1 O    8      11.790000    6.360001   29.927997       6.0000     15.9994
  218   2 H    1      12.550001    7.090001   30.117999       1.0000      1.0079
  219   2 H    1      11.760000    6.220000   28.947997       1.0000      1.0079
  220   1 O    8     -16.620001    7.440000   30.037998       6.0000     15.9994
  221   2 H    1     -15.640001    7.610001   30.147998       1.0000      1.0079
  222   2 H    1     -16.710001    7.370000   29.017997       1.0000      1.0079
  223   1 O    8       3.550000  -19.120001   30.347999       6.0000     15.9994
  224   2 H    1       3.310000  -18.690001   31.217998       1.0000      1.0079
  225   2 H    1       4.580000  -19.200001   30.297996       1.0000      1.0079
  226   1 O    8       4.400000    5.800000   29.217998       6.0000     15.9994
  227   2 H    1       4.220000    4.940000   29.677997       1.0000      1.0079
  228   2 H    1       3.710000    6.470000   29.507999       1.0000      1.0079
  229   1 O    8       1.940000    9.110001   39.417999       6.0000     15.9994
  230   2 H    1       1.580000    9.730001   40.097999       1.0000      1.0079
  231   2 H    1       1.360000    9.190001   38.607999       1.0000      1.0079
  232   1 O    8      32.389999   -1.150000   37.908000       6.0000     15.9994
  233   2 H    1      32.410004   -0.730000   38.857999       1.0000      1.0079
  234   2 H    1      32.160000   -2.040000   38.007999       1.0000      1.0079
  235   1 O    8      -7.000000    8.390000   30.527999       6.0000     15.9994
  236   2 H    1      -6.440001    7.590001   30.257999       1.0000      1.0079
  237   2 H    1      -7.880001    7.980001   30.697999       1.0000      1.0079
  238   1 O    8      -9.690001   20.940001   33.937999       6.0000     15.9994
  239   2 H    1      -9.160001   20.770000   33.037999       1.0000      1.0079
  240   2 H    1      -9.040001   20.950001   34.718000       1.0000      1.0079
  241   1 O    8      24.900000    1.800000   30.737998       6.0000     15.9994
  242   2 H    1      25.830002    2.150000   30.527999       1.0000      1.0079
  243   2 H    1      24.840002    1.820000   31.728000       1.0000      1.0079
  244   1 O    8      -2.020000  -15.570001   36.667999       6.0000     15.9994
  245   2 H    1      -1.110000  -15.600000   36.397998       1.0000      1.0079
  246   2 H    1      -2.370000  -14.930000   35.977998       1.0000      1.0079
  247   1 O    8       7.920001   11.420001   35.837999       6.0000     15.9994
  248   2 H    1       7.110000   11.790000   35.487998       1.0000      1.0079
  249   2 H    1       8.760000   11.780001   35.457998       1.0000      1.0079
  250   1 O    8      -5.800000    4.660000   36.757999       6.0000     15.9994
  251   2 H    1      -4.860000    4.230000   36.697999       1.0000      1.0079
  252   2 H    1      -5.600000    5.540000   36.458000       1.0000      1.0079
  253   1 O    8      -0.130000   19.640001   30.397998       6.0000     15.9994
  254   2 H    1      -0.540000   18.930000   29.827998       1.0000      1.0079
  255   2 H    1      -0.710000   19.730000   31.158000       1.0000      1.0079
  256   1 O    8       9.100000    5.110001   38.398000       6.0000     15.9994
  257   2 H    1       1.440000   19.430000   37.838001       1.0000      1.0079
  258   2 H    1       9.270000    6.050000   38.617997       1.0000      1.0079
  259   1 O    8      10.110001   10.540000   29.277999       6.0000     15.9994
  260   2 H    1      11.080000   10.570001   29.527999       1.0000      1.0079
  261   2 H    1       9.870001    9.610001   29.687999       1.0000      1.0079
  262   1 O    8      -5.580000    1.690000   38.197999       6.0000     15.9994
  263   2 H    1      -5.840001    2.140000   37.327998       1.0000      1.0079
  264   2 H    1      -6.080000    2.230000   38.847999       1.0000      1.0079
  265   1 O    8      -2.970000   16.070002   30.087997       6.0000     15.9994
  266   2 H    1      -2.100000   16.520000   30.267997       1.0000      1.0079
  267   2 H    1      -2.860000   15.550001   29.247997       1.0000      1.0079
  268   1 O    8      -5.390000   24.430000   35.747999       6.0000     15.9994
  269   2 H    1      -5.260000   24.500000   34.777999       1.0000      1.0079
  270   2 H    1      -4.880000   25.270002   36.128000       1.0000      1.0079
  271   1 O    8      17.660000   14.350000   35.847999       6.0000     15.9994
  272   2 H    1      18.290001   14.130001   36.607997       1.0000      1.0079
  273   2 H    1      18.320002   14.520000   35.117999       1.0000      1.0079
  274   1 O    8      -5.400000   19.840000   34.718000       6.0000     15.9994
  275   2 H    1      -4.650001   19.640001   35.287998       1.0000      1.0079
  276   2 H    1      -6.000000   20.400002   35.287998       1.0000      1.0079
  277   1 O    8      -3.260000  -15.220001   39.627998       6.0000     15.9994
  278   2 H    1      -2.990000  -15.110001   40.597999       1.0000      1.0079
  279   2 H    1      -4.190001  -15.540000   39.527999       1.0000      1.0079
  280   1 O    8       8.960000   -1.440000   39.857999       6.0000     15.9994
  281   2 H    1       8.140000   -1.820000   39.497999       1.0000      1.0079
  282   2 H    1       8.710001   -0.580000   40.277999       1.0000      1.0079
  283   1 O    8       5.880000    5.280000   32.607999       6.0000     15.9994
  284   2 H    1       5.090000    4.940000   32.218000       1.0000      1.0079
  285   2 H    1       5.710001    5.900001   33.328000       1.0000      1.0079
  286   1 O    8     -16.170002    2.430000   39.718000       6.0000     15.9994
  287   2 H    1     -16.260000    2.920000   38.837999       1.0000      1.0079
  288   2 H    1     -15.280001    2.040000   39.587999       1.0000      1.0079
  289   1 O    8      10.430001  -10.840001   32.717998       6.0000     15.9994
  290   2 H    1      10.930000  -10.330000   33.387998       1.0000      1.0079
  291   2 H    1       9.850000  -10.160000   32.287999       1.0000      1.0079
  292   1 O    8     -14.910001   17.710001   29.798000       6.0000     15.9994
  293   2 H    1     -15.150002   17.690001   28.827998       1.0000      1.0079
  294   2 H    1     -15.510001   18.530001   30.087997       1.0000      1.0079
  295   1 O    8      -3.610000    0.950000   30.397998       6.0000     15.9994
  296   2 H    1      -3.650000    1.790000   29.897998       1.0000      1.0079
  297   2 H    1      -4.230000    0.340000   29.907996       1.0000      1.0079
  298   1 O    8      -8.910000   -1.120000   30.048000       6.0000     15.9994
  299   2 H    1      -8.890000   -1.150000   29.057998       1.0000      1.0079
  300   2 H    1      -8.910000   -0.130000   30.377998       1.0000      1.0079
  301   1 O    8      -4.830000   18.940001   38.747999       6.0000     15.9994
  302   2 H    1      -4.200000   19.250000   38.097999       1.0000      1.0079
  303   2 H    1      -5.450000   19.660000   38.997999       1.0000      1.0079
  304   3 Pt  78       1.460000    0.900000   26.937999      10.0000    195.0840
  305   3 Pt  78       4.420000    0.860000   26.967998      10.0000    195.0840
  306   3 Pt  78       7.270000    0.780000   26.757999      10.0000    195.0840
  307   3 Pt  78      10.070001    0.670000   26.627998      10.0000    195.0840
  308   3 Pt  78      12.840000    0.930000   26.788001      10.0000    195.0840
  309   3 Pt  78      15.560001    0.810000   26.777999      10.0000    195.0840
  310   3 Pt  78       2.920000    3.140000   26.977996      10.0000    195.0840
  311   3 Pt  78       5.690000    3.270000   26.777999      10.0000    195.0840
  312   3 Pt  78       8.610001    3.100000   26.837997      10.0000    195.0840
  313   3 Pt  78      11.380000    3.320000   26.827998      10.0000    195.0840
  314   3 Pt  78      14.200001    3.340000   26.717998      10.0000    195.0840
  315   3 Pt  78       0.150000    3.270000   26.947997      10.0000    195.0840
  316   3 Pt  78       4.300000    5.720000   27.027999      10.0000    195.0840
  317   3 Pt  78       7.180000    5.670000   26.897998      10.0000    195.0840
  318   3 Pt  78       9.970000    5.550000   26.867999      10.0000    195.0840
  319   3 Pt  78      12.780001    5.690000   26.958000      10.0000    195.0840
  320   3 Pt  78      -1.190000    5.740000   26.837997      10.0000    195.0840
  321   3 Pt  78       1.640000    5.620000   27.018001      10.0000    195.0840
  322   3 Pt  78       5.810000    8.190001   26.877998      10.0000    195.0840
  323   3 Pt  78       8.630000    8.000000   26.917999      10.0000    195.0840
  324   3 Pt  78      11.450001    8.050001   27.007999      10.0000    195.0840
  325   3 Pt  78      -2.590000    8.170000   26.867999      10.0000    195.0840
  326   3 Pt  78       0.330000    8.000000   26.757999      10.0000    195.0840
  327   3 Pt  78       2.910000    8.060000   26.958000      10.0000    195.0840
  328   3 Pt  78       7.260000   10.620001   26.947997      10.0000    195.0840
  329   3 Pt  78      10.060000   10.480001   27.147998      10.0000    195.0840
  330   3 Pt  78      -4.060000   10.620001   27.127998      10.0000    195.0840
  331   3 Pt  78      -1.160000   10.550001   26.987998      10.0000    195.0840
  332   3 Pt  78       1.660000   10.450001   26.867999      10.0000    195.0840
  333   3 Pt  78       4.580000   10.660001   26.867999      10.0000    195.0840
  334   3 Pt  78       8.470000   13.050001   26.977996      10.0000    195.0840
  335   3 Pt  78      -5.530000   13.080001   26.947997      10.0000    195.0840
  336   3 Pt  78      -2.550000   12.910000   26.877998      10.0000    195.0840
  337   3 Pt  78       0.140000   12.990000   26.767997      10.0000    195.0840
  338   3 Pt  78       2.970000   12.880001   26.827998      10.0000    195.0840
  339   3 Pt  78       5.810000   13.100000   26.827998      10.0000    195.0840
  340   3 Pt  78       0.210000    1.610000   24.577998      10.0000    195.0840
  341   3 Pt  78       3.040000    1.650000   24.588001      10.0000    195.0840
  342   3 Pt  78       5.850000    1.550000   24.447997      10.0000    195.0840
  343   3 Pt  78       8.670000    1.500000   24.447997      10.0000    195.0840
  344   3 Pt  78      11.420001    1.610000   24.428001      10.0000    195.0840
  345   3 Pt  78      14.370001    1.590000   24.437999      10.0000    195.0840
  346   3 Pt  78       1.570000    4.180000   24.507999      10.0000    195.0840
  347   3 Pt  78       4.410000    4.060000   24.617999      10.0000    195.0840
  348   3 Pt  78       7.190001    3.960000   24.507999      10.0000    195.0840
  349   3 Pt  78       9.970000    4.030000   24.568000      10.0000    195.0840
  350   3 Pt  78      12.820001    4.040000   24.298000      10.0000    195.0840
  351   3 Pt  78      -1.250000    4.020000   24.498000      10.0000    195.0840
  352   3 Pt  78       3.010000    6.490001   24.697997      10.0000    195.0840
  353   3 Pt  78       5.800000    6.370000   24.537998      10.0000    195.0840
  354   3 Pt  78       8.580000    6.350000   24.518001      10.0000    195.0840
  355   3 Pt  78      11.430000    6.490001   24.557998      10.0000    195.0840
  356   3 Pt  78      -2.640000    6.450000   24.597999      10.0000    195.0840
  357   3 Pt  78       0.160000    6.420000   24.447997      10.0000    195.0840
  358   3 Pt  78       4.430000    8.900001   24.507999      10.0000    195.0840
  359   3 Pt  78       7.230001    8.870000   24.627998      10.0000    195.0840
  360   3 Pt  78       9.980000    8.870000   24.597999      10.0000    195.0840
  361   3 Pt  78      -4.070000    8.920000   24.677997      10.0000    195.0840
  362   3 Pt  78      -1.210000    8.880001   24.507999      10.0000    195.0840
  363   3 Pt  78       1.690000    8.870000   24.498000      10.0000    195.0840
  364   3 Pt  78       5.840001   11.360001   24.527999      10.0000    195.0840
  365   3 Pt  78       8.590000   11.300000   24.708000      10.0000    195.0840
  366   3 Pt  78      -5.500000   11.290001   24.717998      10.0000    195.0840
  367   3 Pt  78      -2.850000   11.330000   24.617999      10.0000    195.0840
  368   3 Pt  78       0.170000   11.310000   24.537998      10.0000    195.0840
  369   3 Pt  78       3.060000   11.320001   24.537998      10.0000    195.0840
  370   3 Pt  78       7.160000   13.710001   24.467998      10.0000    195.0840
  371   3 Pt  78      -6.900001   13.770000   24.717998      10.0000    195.0840
  372   3 Pt  78      -4.080000   13.740001   24.658000      10.0000    195.0840
  373   3 Pt  78      -1.330000   13.670001   24.447997      10.0000    195.0840
  374   3 Pt  78       1.590000   13.630000   24.467998      10.0000    195.0840
  375   3 Pt  78       4.410000   13.790001   24.537998      10.0000    195.0840
  376   3 Pt  78      -8.200001   14.500000   22.277999      10.0000    195.0840
  377   3 Pt  78      -5.430000   14.470000   22.388000      10.0000    195.0840
  378   3 Pt  78      -2.650000   14.480001   22.208000      10.0000    195.0840
  379   3 Pt  78       0.140000   14.490002   22.187999      10.0000    195.0840
  380   3 Pt  78       2.950000   14.530001   22.197997      10.0000    195.0840
  381   3 Pt  78       5.840001   14.530001   22.157996      10.0000    195.0840
  382   3 Pt  78       1.610000    2.380000   22.267997      10.0000    195.0840
  383   3 Pt  78       4.380000    2.350000   22.237998      10.0000    195.0840
  384   3 Pt  78       7.260000    2.280000   22.138000      10.0000    195.0840
  385   3 Pt  78      10.010000    2.220000   22.138000      10.0000    195.0840
  386   3 Pt  78      12.870001    2.310000   22.127998      10.0000    195.0840
  387   3 Pt  78      -1.220000    2.320000   22.187999      10.0000    195.0840
  388   3 Pt  78       3.100000    4.820000   22.307998      10.0000    195.0840
  389   3 Pt  78       5.860000    4.780000   22.227996      10.0000    195.0840
  390   3 Pt  78       8.680000    4.800000   22.197997      10.0000    195.0840
  391   3 Pt  78      11.410000    4.800000   22.167999      10.0000    195.0840
  392   3 Pt  78      -2.630000    4.780000   22.187999      10.0000    195.0840
  393   3 Pt  78       0.250000    4.690000   22.248000      10.0000    195.0840
  394   3 Pt  78       4.430000    7.340000   22.208000      10.0000    195.0840
  395   3 Pt  78       7.220001    7.230001   22.197997      10.0000    195.0840
  396   3 Pt  78      10.030001    7.270000   22.237998      10.0000    195.0840
  397   3 Pt  78      -4.070000    7.260000   22.297996      10.0000    195.0840
  398   3 Pt  78      -1.180000    7.170000   22.178001      10.0000    195.0840
  399   3 Pt  78       1.600000    7.130001   22.227996      10.0000    195.0840
  400   3 Pt  78       5.770000    9.720000   22.227996      10.0000    195.0840
  401   3 Pt  78       8.590000    9.640000   22.327998      10.0000    195.0840
  402   3 Pt  78      -5.390000    9.660000   22.357997      10.0000    195.0840
  403   3 Pt  78      -2.650000    9.580001   22.297996      10.0000    195.0840
  404   3 Pt  78       0.260000    9.500000   22.097995      10.0000    195.0840
  405   3 Pt  78       2.980000    9.710001   22.157996      10.0000    195.0840
  406   3 Pt  78       7.230001   12.100000   22.257999      10.0000    195.0840
  407   3 Pt  78      -6.900001   12.090001   22.427997      10.0000    195.0840
  408   3 Pt  78      -4.010000   12.150001   22.267997      10.0000    195.0840
  409   3 Pt  78      -1.240000   11.980001   22.248000      10.0000    195.0840
  410   3 Pt  78       1.560000   12.090001   22.178001      10.0000    195.0840
  411   3 Pt  78       4.320000   12.200001   22.187999      10.0000    195.0840
  412   3 Pt  78       1.570000    0.680000   20.040000      10.0000    195.0840
  413   3 Pt  78       4.400000    0.650000   20.030000      10.0000    195.0840
  414   3 Pt  78       7.180000    0.690000   19.970000      10.0000    195.0840
  415   3 Pt  78       9.940001    0.680000   19.810000      10.0000    195.0840
  416   3 Pt  78      12.760000    0.630000   19.880000      10.0000    195.0840
  417   3 Pt  78      15.530001    0.650000   19.880000      10.0000    195.0840
  418   3 Pt  78       2.990000    3.060000   19.970000      10.0000    195.0840
  419   3 Pt  78       5.790000    3.140000   19.850000      10.0000    195.0840
  420   3 Pt  78       8.550000    3.220000   19.890000      10.0000    195.0840
  421   3 Pt  78      11.350001    3.100000   19.900000      10.0000    195.0840
  422   3 Pt  78      14.200001    3.080000   19.850000      10.0000    195.0840
  423   3 Pt  78       0.160000    3.070000   19.900000      10.0000    195.0840
  424   3 Pt  78       4.350000    5.610001   19.950000      10.0000    195.0840
  425   3 Pt  78       7.180000    5.650000   19.890000      10.0000    195.0840
  426   3 Pt  78       9.980000    5.620000   19.850000      10.0000    195.0840
  427   3 Pt  78      12.750001    5.490000   19.940000      10.0000    195.0840
  428   3 Pt  78      -1.210000    5.520000   19.990000      10.0000    195.0840
  429   3 Pt  78       1.600000    5.460000   19.970000      10.0000    195.0840
  430   3 Pt  78       5.760000    8.040000   19.870000      10.0000    195.0840
  431   3 Pt  78       8.610001    8.150001   19.890000      10.0000    195.0840
  432   3 Pt  78      11.360001    8.000000   19.960000      10.0000    195.0840
  433   3 Pt  78      -2.680000    7.930000   19.940000      10.0000    195.0840
  434   3 Pt  78       0.180000    7.900000   19.870000      10.0000    195.0840
  435   3 Pt  78       2.920000    8.020000   19.890000      10.0000    195.0840
  436   3 Pt  78       7.140000   10.540000   20.000000      10.0000    195.0840
  437   3 Pt  78       9.990001   10.490000   20.060000      10.0000    195.0840
  438   3 Pt  78      -4.000000   10.440001   20.010000      10.0000    195.0840
  439   3 Pt  78      -1.240000   10.370001   19.880000      10.0000    195.0840
  440   3 Pt  78       1.480000   10.460000   19.810000      10.0000    195.0840
  441   3 Pt  78       4.310000   10.470000   19.950000      10.0000    195.0840
  442   3 Pt  78       8.540000   12.930001   19.930000      10.0000    195.0840
  443   3 Pt  78      -5.510000   12.820001   20.120000      10.0000    195.0840
  444   3 Pt  78      -2.650000   12.850000   19.870000      10.0000    195.0840
  445   3 Pt  78       0.070000   12.790001   19.840000      10.0000    195.0840
  446   3 Pt  78       2.830000   12.870001   19.830000      10.0000    195.0840
  447   3 Pt  78       5.730000   12.870001   19.900000      10.0000    195.0840
  448   3 Pt  78       0.150000    1.390000   17.610000      10.0000    195.0840
  449   3 Pt  78       3.000000    1.530000   17.710000      10.0000    195.0840
  450   3 Pt  78       5.700001    1.590000   17.550000      10.0000    195.0840
  451   3 Pt  78       8.520000    1.680000   17.520000      10.0000    195.0840
  452   3 Pt  78      11.260000    1.510000   17.530000      10.0000    195.0840
  453   3 Pt  78      14.010000    1.540000   17.600000      10.0000    195.0840
  454   3 Pt  78       1.460000    3.850000   17.650000      10.0000    195.0840
  455   3 Pt  78       4.300000    3.950000   17.670000      10.0000    195.0840
  456   3 Pt  78       7.040000    4.010000   17.580000      10.0000    195.0840
  457   3 Pt  78       9.870001    3.990000   17.490000      10.0000    195.0840
  458   3 Pt  78      12.640000    3.950000   17.580000      10.0000    195.0840
  459   3 Pt  78      -1.320000    4.020000   17.670000      10.0000    195.0840
  460   3 Pt  78       2.830000    6.300001   17.690000      10.0000    195.0840
  461   3 Pt  78       5.650000    6.420000   17.560000      10.0000    195.0840
  462   3 Pt  78       8.480000    6.490001   17.620000      10.0000    195.0840
  463   3 Pt  78      11.250000    6.420000   17.550000      10.0000    195.0840
  464   3 Pt  78      -2.740000    6.360001   17.590000      10.0000    195.0840
  465   3 Pt  78       0.140000    6.310000   17.680000      10.0000    195.0840
  466   3 Pt  78       4.290000    8.890000   17.690000      10.0000    195.0840
  467   3 Pt  78       7.230001    8.830000   17.680000      10.0000    195.0840
  468   3 Pt  78      10.080000    8.890000   17.600000      10.0000    195.0840
  469   3 Pt  78      -4.100000    8.870000   17.640000      10.0000    195.0840
  470   3 Pt  78      -1.340000    8.720000   17.610000      10.0000    195.0840
  471   3 Pt  78       1.490000    8.790001   17.540000      10.0000    195.0840
  472   3 Pt  78       5.730000   11.220001   17.590000      10.0000    195.0840
  473   3 Pt  78       8.660001   11.250000   17.650000      10.0000    195.0840
  474   3 Pt  78      -5.510000   11.230000   17.660000      10.0000    195.0840
  475   3 Pt  78      -2.670000   11.270000   17.630000      10.0000    195.0840
  476   3 Pt  78       0.150000   11.200000   17.380000      10.0000    195.0840
  477   3 Pt  78       2.950000   11.230000   17.570000      10.0000    195.0840
  478   3 Pt  78       7.090001   13.650000   17.470000      10.0000    195.0840
  479   3 Pt  78      -6.820001   13.690001   17.680000      10.0000    195.0840
  480   3 Pt  78      -4.060000   13.760000   17.670000      10.0000    195.0840
  481   3 Pt  78      -1.370000   13.690001   17.630000      10.0000    195.0840
  482   3 Pt  78       1.590000   13.750001   17.450000      10.0000    195.0840
  483   3 Pt  78       4.360000   13.600000   17.490000      10.0000    195.0840
  484   3 Pt  78      -8.340000   14.530001   15.250000      10.0000    195.0840
  485   3 Pt  78      -5.590000   14.480001   15.180000      10.0000    195.0840
  486   3 Pt  78      -2.770000   14.530001   15.430000      10.0000    195.0840
  487   3 Pt  78       0.020000   14.670001   15.000000      10.0000    195.0840
  488   3 Pt  78       2.920000   14.610001   15.100000      10.0000    195.0840
  489   3 Pt  78       5.760000   14.550000   15.280000      10.0000    195.0840
  490   3 Pt  78       1.410000    2.330000   15.250000      10.0000    195.0840
  491   3 Pt  78       4.190001    2.410000   15.260000      10.0000    195.0840
  492   3 Pt  78       6.900001    2.470000   15.170000      10.0000    195.0840
  493   3 Pt  78       9.920000    2.460000   15.220000      10.0000    195.0840
  494   3 Pt  78      12.820001    2.380000   15.280000      10.0000    195.0840
  495   3 Pt  78      -1.340000    2.310000   15.310000      10.0000    195.0840
  496   3 Pt  78       2.870000    4.770000   15.350000      10.0000    195.0840
  497   3 Pt  78       5.650000    4.840000   15.200000      10.0000    195.0840
  498   3 Pt  78       8.500000    4.770000   15.270000      10.0000    195.0840
  499   3 Pt  78      11.300000    4.810000   15.160000      10.0000    195.0840
  500   3 Pt  78      -2.770000    4.720000   15.330000      10.0000    195.0840
  501   3 Pt  78       0.050000    4.770000   15.310000      10.0000    195.0840
  502   3 Pt  78       4.200000    7.120000   15.320000      10.0000    195.0840
  503   3 Pt  78       7.040000    7.180000   15.260000      10.0000    195.0840
  504   3 Pt  78       9.870001    7.210000   15.200000      10.0000    195.0840
  505   3 Pt  78      -4.250000    7.200000   15.240000      10.0000    195.0840
[...]
 -                                                                             -
 -------------------------------------------------------------------------------
 COUNTER                                    TOTAL       BLAS       SMM       ACC
 flops     5 x    32 x     5           4046368000       0.0%    100.0%      0.0%
 flops    13 x    32 x     5           5158915840       0.0%    100.0%      0.0%
 flops     5 x    32 x    13           5158915840       0.0%    100.0%      0.0%
 flops    13 x    32 x    13           6086963584       0.0%    100.0%      0.0%
 flops     5 x     5 x    96           7476940800       0.0%    100.0%      0.0%
 flops    13 x    32 x    20           8371051520       0.0%    100.0%      0.0%
 flops    20 x    32 x    13           8371051520       0.0%    100.0%      0.0%
 flops     5 x    32 x    20           9131161600       0.0%    100.0%      0.0%
 flops    20 x    32 x     5           9131161600       0.0%    100.0%      0.0%
 flops     5 x    13 x    96           9479109120       0.0%    100.0%      0.0%
 flops    13 x     5 x    96           9492387840       0.0%    100.0%      0.0%
 flops    13 x    13 x    96          11316694272       0.0%    100.0%      0.0%
 flops    20 x    13 x    96          15353994240       0.0%    100.0%      0.0%
 flops    13 x    20 x    96          15429872640       0.0%    100.0%      0.0%
 flops     5 x    20 x    96          16780800000       0.0%    100.0%      0.0%
 flops    20 x     5 x    96          16798310400       0.0%    100.0%      0.0%
 flops     5 x     5 x   128          69784780800       0.0%    100.0%      0.0%
 flops    20 x    32 x    20          74052403200       0.0%    100.0%      0.0%
 flops     5 x    13 x   128          88471685120       0.0%    100.0%      0.0%
 flops    13 x     5 x   128          88595619840       0.0%    100.0%      0.0%
 flops    13 x    13 x   128         105622479872       0.0%    100.0%      0.0%
 flops    20 x    20 x    96         136791244800       0.0%    100.0%      0.0%
 flops    20 x    13 x   128         143303946240       0.0%    100.0%      0.0%
 flops    13 x    20 x   128         144012144640       0.0%    100.0%      0.0%
 flops     5 x    20 x   128         156620800000       0.0%    100.0%      0.0%
 flops    20 x     5 x   128         156784230400       0.0%    100.0%      0.0%
 flops    20 x    20 x   128        1276718284800       0.0%    100.0%      0.0%
 flops inhomo. stacks                           0       0.0%      0.0%      0.0%
 flops total                         2.598341E+12       0.0%    100.0%      0.0%
 flops max/rank                     23.297219E+09       0.0%    100.0%      0.0%
 matmuls inhomo. stacks                         0       0.0%      0.0%      0.0%
 matmuls total                           72910890       0.0%    100.0%      0.0%
 number of processed stacks                721492       0.0%    100.0%      0.0%
 average stack size                                     0.0     101.1       0.0
 marketing flops                     5.357049E+12
 -------------------------------------------------------------------------------
 # multiplications                             39
 max memory usage/rank               1.610678E+09
 # max total images/rank                        2
 # max 3D layers                                1
 # MPI messages exchanged                  144768
 MPI messages size (bytes):
  total size                        92.800549E+09
  min size                         288.768000E+03
  max size                           2.193880E+06
  average size                     641.029438E+03
 MPI breakdown and total messages size (bytes):
             size <=      128                   0                        0
       128 < size <=     8192                   0                        0
      8192 < size <=    32768                   0                        0
     32768 < size <=   131072                   0                        0
    131072 < size <=  4194304              144768              92800550088
   4194304 < size <= 16777216                   0                        0
  16777216 < size                               0                        0
 -------------------------------------------------------------------------------

 *** WARNING in dbcsr_mm.F:290 :: Using a non-square number of MPI ranks ***
 *** might lead to poor performance. Used ranks: 128 Suggested: 121 256  ***

 -------------------------------------------------------------------------------
 -                                                                             -
 -                      DBCSR MESSAGE PASSING PERFORMANCE                      -
 -                                                                             -
 -------------------------------------------------------------------------------
 ROUTINE             CALLS      AVE VOLUME [Bytes]
 MP_Bcast               28                     12.
 MP_Allreduce          340                     12.
 MP_Alltoall          1085                 584263.
 MP_ISend             2496                 302477.
 MP_IRecv             2496                 296027.
 -------------------------------------------------------------------------------

 -------------------------------------------------------------------------------
 -                                                                             -
 -                                DBM STATISTICS                               -
 -                                                                             -
 -------------------------------------------------------------------------------
    M  x    N  x    K                                          COUNT     PERCENT
 -------------------------------------------------------------------------------

 -------------------------------------------------------------------------------
 -                                                                             -
 -                                GRID STATISTICS                              -
 -                                                                             -
 -------------------------------------------------------------------------------
 LP    KERNEL             BACKEND                              COUNT     PERCENT
 4     collocate general  REF                               14968165      21.99%
 4     integrate general  REF                               14846651      21.81%
 3     collocate general  REF                               10472147      15.39%
 3     integrate general  REF                               10417768      15.31%
 2     collocate general  REF                                8460124      12.43%
 2     integrate general  REF                                8231472      12.09%
 5     integrate general  REF                                 404545       0.59%
 0     collocate general  REF                                 132864       0.20%
 0     integrate general  REF                                  66432       0.10%
 1     integrate general  REF                                  66432       0.10%
 -------------------------------------------------------------------------------

 MEMORY| Estimated peak process memory [MiB]                                1787

 -------------------------------------------------------------------------------
 ----                             MULTIGRID INFO                            ----
 -------------------------------------------------------------------------------
 count for grid        1:        1097275          cutoff [a.u.]          200.00
 count for grid        2:        1091856          cutoff [a.u.]           66.67
 count for grid        3:         716598          cutoff [a.u.]           22.22
 count for grid        4:         555871          cutoff [a.u.]            7.41
 total gridlevel count  :        3461600

 -------------------------------------------------------------------------------
 -                                                                             -
 -                         MESSAGE PASSING PERFORMANCE                         -
 -                                                                             -
 -------------------------------------------------------------------------------

 ROUTINE             CALLS      AVE VOLUME [Bytes]
 MP_Group                4
 MP_Bcast             2207                 306289.
 MP_Allreduce         3378                  32285.
 MP_Sync                80
 MP_Alltoall          2242               16778005.
 MP_SendRecv           508                   6081.
 MP_ISendRecv        18796                  61740.
 MP_Wait             33346
 MP_comm_split          38
 MP_ISend            13716                 256409.
 MP_IRecv            13716                 256409.
 MP_Recv               122                1700608.
 MP_Write_All            3                1797408.
 -------------------------------------------------------------------------------


 -------------------------------------------------------------------------------
 -                                                                             -
 -                           R E F E R E N C E S                               -
 -                                                                             -
 -------------------------------------------------------------------------------
 
 CP2K version 2022.1, the CP2K developers group (2022).
 CP2K is freely available from https://www.cp2k.org/ .

 Kuehne,Thomas D.; Iannuzzi,Marcella; Del Ben,Mauro;
 Rybkin,Vladimir V.; Seewald,Patrick; Stein,Frederick; Laino,Teodoro;
 Khaliullin,Rustam Z.; Schuett,Ole; Schiffmann,Florian; Golze,Dorothea;
 Wilhelm,Jan; Chulkov,Sergey; Bani-Hashemian,Mohammad Hossein;
 Weber,Valery; Borstnik,Urban; Taillefumier,Mathieu;
 Jakobovits,Alice Shoshana; Lazzaro,Alfio; Pabst,Hans; Mueller,Tiziano;
 Schade,Robert; Guidon,Manuel; Andermatt,Samuel; Holmberg,Nico;
 Schenter,Gregory K.; Hehn,Anna; Bussy,Augustin; Belleflamme,Fabian;
 Tabacchi,Gloria; Gloess,Andreas; Lass,Michael; Bethune,Iain;
 Mundy,Christopher J.; Plessl,Christian; Watkins,Matt;
 VandeVondele,Joost; Krack,Matthias; Hutter,Juerg. 
 The Journal of Chemical Physics, 152 (19), (2020). 
 CP2K: An electronic structure and molecular dynamics software package -
 Quickstep: Efficient and accurate electronic structure calculations.
 https://doi.org/10.1063/5.0007045

 Goerigk, Lars; Hansen, Andreas; Bauer, Christoph; Ehrlich, Stephan;
 Najibi, Asim; Grimme, Stefan. , 19 (48), (2017). 
 A look at the density functional theory zoo with the advanced GMTKN55 database
 for general main group thermochemistry, kinetics and noncovalent interactions.
 https://doi.org/10.1039/C7CP04913G

 Bani-Hashemian, MH; Bruck, S; Luisier, M; VandeVondele, J. 
 JOURNAL OF CHEMICAL PHYSICS, 144 (4), 044113 (2016). 
 A generalized Poisson solver for first-principles device simulations.
 https://doi.org/10.1063/1.4940796

 Schuett, Ole; Messmer, Peter; Hutter, Juerg; VandeVondele, Joost. 
 Electronic Structure Calculations on Graphics Processing Units, John
 Wiley & Sons, Ltd, 173-190 (2016). 
 GPU-Accelerated Sparse Matrix-Matrix Multiplication for
 Linear Scaling Density Functional Theory.
 https://doi.org/10.1002/9781118670712.ch8

 Heinecke, A; Henry, G; Hutchinson, M; Pabst, H. 
 Proceedings of Intl. Supercomputing Conference, 981-991 (2016). 
 LIBXSMM: Accelerating Small Matrix Multiplications
 by Runtime Code Generation.
 https://doi.org/10.1109/SC.2016.83

 Borstnik, U; VandeVondele, J; Weber, V; Hutter, J. 
 PARALLEL COMPUTING, 40 (5-6), 47-58 (2014). 
 Sparse matrix multiplication: The distributed block-compressed sparse
 row library.
 https://doi.org/10.1016/j.parco.2014.03.012

 Hutter, J; Iannuzzi, M; Schiffmann, F; VandeVondele, J. 
 WIREs Comput Mol Sci., 4 (1), 15-25 (2014). 
 CP2K: atomistic simulations of condensed matter systems.
 https://doi.org/10.1002/wcms.1159

 Marek, A; Blum, V; Johanni, R; Havu, V; Lang, B; Auckenthaler, T;
 Heinecke, A; Bungartz, H; Lederer, H. 
 Journal of Physics: Condensed Matter, 26 (21), (2014). 
 The ELPA library: scalable parallel eigenvalue solutions for
 electronic structure
 theory and computational science.
 https://doi.org/10.1088/0953-8984/26/21/213201

 Grimme, S; Ehrlich, S; Goerigk, L. 
 JOURNAL OF COMPUTATIONAL CHEMISTRY, 32, 1456 (2011). 
 Effect of the damping function in dispersion corrected density functional theory.
 https://doi.org/10.1002/jcc.21759

 Grimme, S; Antony, J; Ehrlich, S; Krieg, H. 
 JOURNAL OF CHEMICAL PHYSICS, 132 (15), 154104 (2010). 
 A consistent and accurate ab initio parametrization of density
 functional dispersion correction (DFT-D) for the 94 elements H-Pu.
 https://doi.org/10.1063/1.3382344

 VandeVondele, J; Hutter, J. 
 JOURNAL OF CHEMICAL PHYSICS, 127 (11), 114105 (2007). 
 Gaussian basis sets for accurate calculations on molecular systems in
 gas and condensed phases.
 https://doi.org/10.1063/1.2770708

 Krack, M. 
 THEORETICAL CHEMISTRY ACCOUNTS, 114 (1-3), 145-152 (2005). 
 Pseudopotentials for H to Kr optimized for gradient-corrected
 exchange-correlation functionals.
 https://doi.org/10.1007/s00214-005-0655-y

 VandeVondele, J; Krack, M; Mohamed, F; Parrinello, M; Chassaing, T;
 Hutter, J. COMPUTER PHYSICS COMMUNICATIONS, 167 (2), 103-128 (2005). 
 QUICKSTEP: Fast and accurate density functional calculations using a
 mixed Gaussian and plane waves approach.
 https://doi.org/10.1016/j.cpc.2004.12.014

 Frigo, M; Johnson, SG. 
 PROCEEDINGS OF THE IEEE, 93 (2), 216-231 (2005). 
 The design and implementation of FFTW3.
 https://doi.org/10.1109/JPROC.2004.840301

 Hartwigsen, C; Goedecker, S; Hutter, J. 
 PHYSICAL REVIEW B, 58 (7), 3641-3662 (1998). 
 Relativistic separable dual-space Gaussian pseudopotentials from H to Rn.
 https://doi.org/10.1103/PhysRevB.58.3641

 Lippert, G; Hutter, J; Parrinello, M. 
 MOLECULAR PHYSICS, 92 (3), 477-487 (1997). 
 A hybrid Gaussian and plane wave density functional scheme.
 https://doi.org/10.1080/002689797170220

 Perdew, JP; Burke, K; Ernzerhof, M. 
 PHYSICAL REVIEW LETTERS, 77 (18), 3865-3868 (1996). 
 Generalized gradient approximation made simple.
 https://doi.org/10.1103/PhysRevLett.77.3865

 Goedecker, S; Teter, M; Hutter, J. 
 PHYSICAL REVIEW B, 54 (3), 1703-1710 (1996). 
 Separable dual-space Gaussian pseudopotentials.
 https://doi.org/10.1103/PhysRevB.54.1703


 -------------------------------------------------------------------------------
 -                                                                             -
 -                                T I M I N G                                  -
 -                                                                             -
 -------------------------------------------------------------------------------
 SUBROUTINE                       CALLS  ASD         SELF TIME        TOTAL TIME
                                MAXIMUM       AVERAGE  MAXIMUM  AVERAGE  MAXIMUM
 CP2K                                 1  1.0    0.023    0.040  262.616  262.617
 qs_forces                            1  2.0    0.002    0.002  262.263  262.265
 qs_energies                          1  3.0    0.000    0.000  256.164  256.167
 scf_env_do_scf                       1  4.0    0.000    0.000  247.039  247.177
 scf_env_do_scf_inner_loop           36  5.0    0.002    0.005  247.035  247.173
 rebuild_ks_matrix                   37  6.9    0.000    0.000  133.584  133.636
 qs_ks_build_kohn_sham_matrix        37  7.9    0.006    0.006  133.584  133.636
 qs_ks_update_qs_env                 36  6.0    0.000    0.000  129.574  129.625
 pw_transfer                       1928 12.2    0.141    0.177   84.376   85.990
 fft_wrap_pw1pw2                   1928 13.2    0.018    0.022   84.235   85.813
 fft_wrap_pw1pw2_200               1706 14.4    5.679    6.748   83.094   84.599
 pw_poisson_solve                    37  8.9    0.004    0.010   72.121   72.156
 qs_scf_new_mos                      36  6.0    0.001    0.004   71.756   71.856
 fft3d_ps                          1928 15.2   24.285   26.963   67.729   70.184
 implicit_poisson_solver_mixed_      37  9.9    1.530    1.864   68.232   68.277
 eigensolver                         36  7.0    0.003    0.005   67.517   67.685
 derive_fft                         222 12.1    0.014    0.017   47.862   48.025
 cp_fm_diag_elpa                     38  8.1    0.000    0.001   47.598   47.727
 cp_fm_redistribute_end              38  9.1    6.315   47.163    6.393   47.204
 cp_fm_diag_elpa_base                38  9.0   40.208   46.137   40.587   46.538
 mp_alltoall_z22v                  1928 17.2   36.347   44.865   36.347   44.865
 apply_P_operator                   185 11.1    0.987    1.096   40.929   41.096
 sum_up_and_integrate                37  8.9    0.202    0.256   40.878   40.939
 integrate_v_rspace                  37  9.9    0.001    0.002   40.676   40.793
 qs_rho_update_rho_low               37  6.0    0.000    0.000   40.574   40.581
 calculate_rho_elec                  37  7.0    0.072    0.100   40.574   40.581
 grid_collocate_task_list            37  8.0   27.058   31.546   27.058   31.546
 grid_integrate_task_list            37 10.9   25.167   29.236   25.167   29.236
 x_to_yz                           1111 16.4    4.739    6.084   27.435   28.848
 cp_fm_triangular_multiply          108  8.0   21.386   21.655   21.386   21.655
 yz_to_x                            595 16.4    1.630    1.897   15.133   20.557
 rs_pw_transfer                     300 10.4    0.004    0.004   17.400   20.437
 qs_vxc_create                       37  8.9    0.001    0.002   18.372   18.600
 xc_vxc_pw_create                    37  9.9    0.315    0.399   18.371   18.599
 density_rs2pw                       37  8.0    0.002    0.003   12.654   15.789
 xc_pw_derive                       222 11.9    0.003    0.004   12.970   14.352
 apply_poisson_operator_fft          37 10.9    0.000    0.001   11.935   12.144
 apply_inv_laplace_operator_fft     113 11.6    0.279    0.334   11.052   11.452
 potential_pw2rs                     37 10.9    0.011    0.012   10.794   10.890
 mp_waitany                       13716 12.3    7.234   10.407    7.234   10.407
 rs_pw_transfer_RS2PW_200            39  9.9    2.455    2.818    7.087   10.099
 xc_pw_divergence                    37 10.9    0.002    0.002    8.738    9.802
 xc_rho_set_and_dset_create          37 10.9    0.185    0.217    8.983    9.778
 ps_implicit_compute_error_fft       74 10.9    0.466    0.574    8.107    8.694
 mp_alltoall_d11v                   540 10.3    5.872    8.471    5.872    8.471
 ps_implicit_compute_veps            37 10.9    0.215    0.257    8.139    8.273
 pw_scatter_p                      1222 15.4    6.875    8.013    6.875    8.013
 rs_gather_matrices                  37 10.9    0.046    0.072    4.702    7.294
 rs_pw_transfer_PW2RS_200            39 12.7    2.935    3.075    6.209    6.361
 pw_derive                          888 13.0    5.641    6.048    5.641    6.048
 gspace_mixing                       35  6.0    0.067    0.084    6.017    6.017
 scf_post_calculation_gpw             1  4.0    0.000    0.001    5.816    5.821
 write_available_results              1  5.0    0.000    0.000    5.815    5.821
 -------------------------------------------------------------------------------

 The number of warnings for this run is : 1
 
 -------------------------------------------------------------------------------
  **** **** ******  **  PROGRAM ENDED AT                 2023-12-02 07:56:38.238
 ***** ** ***  *** **   PROGRAM RAN ON                                     cu101
 **    ****   ******    PROGRAM RAN BY                                     jxzhu
 ***** **    ** ** **   PROGRAM PROCESS ID                                 59482
  **** **  *******  **  PROGRAM STOPPED IN /public/home/jxzhu/tmp_calc/1aadd47bc
                                           30e1925b38c1c3ef8be1e80231304cc/calc/
                                           001000.000/search_hi.000001
