 DBCSR| CPU Multiplication driver                                           XSMM
 DBCSR| Multrec recursion limit                                              512
 DBCSR| Multiplication stack size                                           1000
 DBCSR| Maximum elements for images                                    UNLIMITED
 DBCSR| Multiplicative factor virtual images                                   1
 DBCSR| Use multiplication densification                                       T
 DBCSR| Multiplication size stacks                                             3
 DBCSR| Use memory pool for CPU allocation                                     F
 DBCSR| Number of 3D layers                                               SINGLE
 DBCSR| Use MPI memory allocation                                              F
 DBCSR| Use RMA algorithm                                                      F
 DBCSR| Use Communication thread                                               T
 DBCSR| Communication thread load                                             87
 DBCSR| MPI: My node id                                                        0
 DBCSR| MPI: Number of nodes                                                  64
 DBCSR| OMP: Current number of threads                                         1
 DBCSR| OMP: Max number of threads                                             1
 DBCSR| Split modifier for TAS multiplication algorithm                  1.0E+00


  **** **** ******  **  PROGRAM STARTED AT               2023-11-26 23:18:51.048
 ***** ** ***  *** **   PROGRAM STARTED ON                                 cu054
 **    ****   ******    PROGRAM STARTED BY                                 jxzhu
 ***** **    ** ** **   PROGRAM PROCESS ID                                 41816
  **** **  *******  **  PROGRAM STARTED IN /public/home/jxzhu/tmp_calc/af2075565
                                           805657d94fa4669dad6f4b174b0a4fb/calc/
                                           002500.000/pbc

 CP2K| version string:                                       CP2K version 2022.1
 CP2K| source code revision number:                                  git:2caeb6f
 CP2K| cp2kflags: omp libint fftw3 libxc elpa parallel mpi3 scalapack cosma xsmm
 CP2K|             plumed2 spglib mkl sirius libvori libbqb
 CP2K| is freely available from                            https://www.cp2k.org/
 CP2K| Program compiled at                           Mon Jul 3 17:37:06 CST 2023
 CP2K| Program compiled on                                                 mu003
 CP2K| Program compiled for                                                local
 CP2K| Data directory path                             /public/home/jxzhu/basis/
 CP2K| Input file name                                                 input.inp
 
 GLOBAL| Force Environment number                                              1
 GLOBAL| Basis set file name                                        BASIS_MOLOPT
 GLOBAL| Potential file name                                      GTH_POTENTIALS
 GLOBAL| MM Potential file name                                     MM_POTENTIAL
 GLOBAL| Coordinate file name                                          coord.xyz
 GLOBAL| Method name                                                        CP2K
 GLOBAL| Project name                                                       cp2k
 GLOBAL| Run type                                                   ENERGY_FORCE
 GLOBAL| FFT library                                                       FFTW3
 GLOBAL| Diagonalization library                                            ELPA
 GLOBAL| Minimum number of eigenvectors for ELPA usage                        16
 GLOBAL| Orthonormality check for eigenvectors                          DISABLED
 GLOBAL| Matrix multiplication library                                     COSMA
 GLOBAL| All-to-all communication in single precision                          F
 GLOBAL| FFTs using library dependent lengths                                  F
 GLOBAL| Grid backend                                                       AUTO
 GLOBAL| Global print level                                               MEDIUM
 GLOBAL| MPI I/O enabled                                                       T
 GLOBAL| Total number of message passing processes                            64
 GLOBAL| Number of threads for this process                                    1
 GLOBAL| This output is from process                                           0
 GLOBAL| Stack size for threads created by OpenMP (OMP_STACKSIZE)        default
 GLOBAL| CPU model name                 Intel(R) Xeon(R) Gold 6338 CPU @ 2.00GHz
 GLOBAL| CPUID                                                              1003

 MEMORY| system memory details [Kb]
 MEMORY|                        rank 0           min           max       average
 MEMORY| MemTotal            263619172     263619172     263619172     263619172
 MEMORY| MemFree             210829568     210829568     210832048     210829926
 MEMORY| Buffers                  3320          3320          3320          3320
 MEMORY| Cached                3878280       3878280       3878280       3878280
 MEMORY| Slab                  1760812       1760812       1760812       1760812
 MEMORY| SReclaimable           241780        241780        241780        241780
 MEMORY| MemLikelyFree       214952948     214952948     214955428     214953306


 *** Fundamental physical constants (SI units) ***

 *** Literature: B. J. Mohr and B. N. Taylor,
 ***             CODATA recommended values of the fundamental physical
 ***             constants: 2006, Web Version 5.1
 ***             http://physics.nist.gov/constants

 Speed of light in vacuum [m/s]                             2.99792458000000E+08
 Magnetic constant or permeability of vacuum [N/A**2]       1.25663706143592E-06
 Electric constant or permittivity of vacuum [F/m]          8.85418781762039E-12
 Planck constant (h) [J*s]                                  6.62606896000000E-34
 Planck constant (h-bar) [J*s]                              1.05457162825177E-34
 Elementary charge [C]                                      1.60217648700000E-19
 Electron mass [kg]                                         9.10938215000000E-31
 Electron g factor [ ]                                     -2.00231930436220E+00
 Proton mass [kg]                                           1.67262163700000E-27
 Fine-structure constant                                    7.29735253760000E-03
 Rydberg constant [1/m]                                     1.09737315685270E+07
 Avogadro constant [1/mol]                                  6.02214179000000E+23
 Boltzmann constant [J/K]                                   1.38065040000000E-23
 Atomic mass unit [kg]                                      1.66053878200000E-27
 Bohr radius [m]                                            5.29177208590000E-11

 *** Conversion factors ***

 [u] -> [a.u.]                                              1.82288848426455E+03
 [Angstrom] -> [Bohr] = [a.u.]                              1.88972613288564E+00
 [a.u.] = [Bohr] -> [Angstrom]                              5.29177208590000E-01
 [a.u.] -> [s]                                              2.41888432650478E-17
 [a.u.] -> [fs]                                             2.41888432650478E-02
 [a.u.] -> [J]                                              4.35974393937059E-18
 [a.u.] -> [N]                                              8.23872205491840E-08
 [a.u.] -> [K]                                              3.15774647902944E+05
 [a.u.] -> [kJ/mol]                                         2.62549961709828E+03
 [a.u.] -> [kcal/mol]                                       6.27509468713739E+02
 [a.u.] -> [Pa]                                             2.94210107994716E+13
 [a.u.] -> [bar]                                            2.94210107994716E+08
 [a.u.] -> [atm]                                            2.90362800883016E+08
 [a.u.] -> [eV]                                             2.72113838565563E+01
 [a.u.] -> [Hz]                                             6.57968392072181E+15
 [a.u.] -> [1/cm] (wave numbers)                            2.19474631370540E+05
 [a.u./Bohr**2] -> [1/cm]                                   5.14048714338585E+03
 

 CELL_TOP| Volume [angstrom^3]:                                     10221.806009
 CELL_TOP| Vector a [angstrom    16.869     0.000     0.000   |a| =    16.869000
 CELL_TOP| Vector b [angstrom    -8.434    14.609     0.000   |b| =    16.869015
 CELL_TOP| Vector c [angstrom     0.000     0.000    41.478   |c| =    41.478000
 CELL_TOP| Angle (b,c), alpha [degree]:                                90.000000
 CELL_TOP| Angle (a,c), beta  [degree]:                                90.000000
 CELL_TOP| Angle (a,b), gamma [degree]:                               119.999970
 CELL_TOP| Numerically orthorhombic:                                          NO
 
 GENERATE|  Preliminary Number of Bonds generated:                             0
 GENERATE|  Achieved consistency in connectivity generation.

 CELL| Volume [angstrom^3]:                                         10221.806009
 CELL| Vector a [angstrom]:      16.869     0.000     0.000   |a| =    16.869000
 CELL| Vector b [angstrom]:      -8.434    14.609     0.000   |b| =    16.869015
 CELL| Vector c [angstrom]:       0.000     0.000    41.478   |c| =    41.478000
 CELL| Angle (b,c), alpha [degree]:                                    90.000000
 CELL| Angle (a,c), beta  [degree]:                                    90.000000
 CELL| Angle (a,b), gamma [degree]:                                   119.999970
 CELL| Numerically orthorhombic:                                              NO

 CELL_REF| Volume [angstrom^3]:                                     10221.806009
 CELL_REF| Vector a [angstrom    16.869     0.000     0.000   |a| =    16.869000
 CELL_REF| Vector b [angstrom    -8.434    14.609     0.000   |b| =    16.869015
 CELL_REF| Vector c [angstrom     0.000     0.000    41.478   |c| =    41.478000
 CELL_REF| Angle (b,c), alpha [degree]:                                90.000000
 CELL_REF| Angle (a,c), beta  [degree]:                                90.000000
 CELL_REF| Angle (a,b), gamma [degree]:                               119.999970
 CELL_REF| Numerically orthorhombic:                                          NO

 *******************************************************************************
 *******************************************************************************
 **                                                                           **
 **     #####                         ##              ##                      **
 **    ##   ##            ##          ##              ##                      **
 **   ##     ##                       ##            ######                    **
 **   ##     ##  ##   ##  ##   #####  ##  ##   ####   ##    #####    #####    **
 **   ##     ##  ##   ##  ##  ##      ## ##   ##      ##   ##   ##  ##   ##   **
 **   ##  ## ##  ##   ##  ##  ##      ####     ###    ##   ######   ######    **
 **    ##  ###   ##   ##  ##  ##      ## ##      ##   ##   ##       ##        **
 **     #######   #####   ##   #####  ##  ##  ####    ##    #####   ##        **
 **           ##                                                    ##        **
 **                                                                           **
 **                                                ... make the atoms dance   **
 **                                                                           **
 **            Copyright (C) by CP2K developers group (2000-2022)             **
 **                      J. Chem. Phys. 152, 194103 (2020)                    **
 **                                                                           **
 *******************************************************************************

 DFT| Spin restricted Kohn-Sham (RKS) calculation                            RKS
 DFT| Multiplicity                                                             1
 DFT| Number of spin states                                                    1
 DFT| Charge                                                                   0
 DFT| Self-interaction correction (SIC)                                       NO
 DFT| Cutoffs: density                                              1.000000E-10
 DFT|          gradient                                             1.000000E-10
 DFT|          tau                                                  1.000000E-10
 DFT|          cutoff_smoothing_range                               0.000000E+00
 DFT| XC density smoothing                                                  NONE
 DFT| XC derivatives                                                          PW

 FUNCTIONAL| PBE:
 FUNCTIONAL| J.P.Perdew, K.Burke, M.Ernzerhof, Phys. Rev. Letter, vol. 77, n 18,
 FUNCTIONAL|  pp. 3865-3868, (1996){spin unpolarized}                           

 vdW POTENTIAL|                                                   Pair Potential
 vdW POTENTIAL|          DFT-D3 (Version 3.1)
 vdW POTENTIAL|          Potential Form: S. Grimme et al, JCP 132: 154104 (2010)
 vdW POTENTIAL|          Zero Damping
 vdW POTENTIAL|          Cutoff Radius [Bohr]:                             20.00
 vdW POTENTIAL|          s6 Scaling Factor:                               1.0000
 vdW POTENTIAL|          sr6 Scaling Factor:                              1.2170
 vdW POTENTIAL|          s8 Scaling Factor:                               0.7220
 vdW POTENTIAL|          Cutoff for CN calculation:                   0.1000E-05

 QS| Method:                                                                 GPW
 QS| Density plane wave grid type                        NON-SPHERICAL FULLSPACE
 QS| Number of grid levels:                                                    4
 QS| Density cutoff [a.u.]:                                                200.0
 QS| Multi grid cutoff [a.u.]: 1) grid level                               200.0
 QS|                           2) grid level                                66.7
 QS|                           3) grid level                                22.2
 QS|                           4) grid level                                 7.4
 QS| Grid level progression factor:                                          3.0
 QS| Relative density cutoff [a.u.]:                                        20.0
 QS| Interaction thresholds: eps_pgf_orb:                                3.2E-07
 QS|                         eps_filter_matrix:                          0.0E+00
 QS|                         eps_core_charge:                            1.0E-15
 QS|                         eps_rho_gspace:                             1.0E-13
 QS|                         eps_rho_rspace:                             1.0E-13
 QS|                         eps_gvg_rspace:                             3.2E-07
 QS|                         eps_ppl:                                    1.0E-02
 QS|                         eps_ppnl:                                   3.2E-09


 ATOMIC KIND INFORMATION

  1. Atomic kind: O                                     Number of atoms:     230

     Orbital Basis Set                                        DZVP-MOLOPT-SR-GTH

       Number of orbital shell sets:                                           1
       Number of orbital shells:                                               5
       Number of primitive Cartesian functions:                                5
       Number of Cartesian basis functions:                                   14
       Number of spherical basis functions:                                   13
       Norm type:                                                              2

       Normalised Cartesian orbitals:

                        Set   Shell   Orbital            Exponent    Coefficient

                          1       1    2s               10.389228       0.396646
                                                         3.849621       0.208811
                                                         1.388401      -0.301641
                                                         0.496955      -0.274061
                                                         0.162492      -0.033677

                          1       2    3s               10.389228       0.303673
                                                         3.849621       0.240943
                                                         1.388401      -0.313066
                                                         0.496955      -0.043055
                                                         0.162492       0.213991

                          1       3    3px              10.389228      -1.530415
                                                         3.849621      -1.371928
                                                         1.388401      -0.761951
                                                         0.496955      -0.253695
                                                         0.162492      -0.035541
                          1       3    3py              10.389228      -1.530415
                                                         3.849621      -1.371928
                                                         1.388401      -0.761951
                                                         0.496955      -0.253695
                                                         0.162492      -0.035541
                          1       3    3pz              10.389228      -1.530415
                                                         3.849621      -1.371928
                                                         1.388401      -0.761951
                                                         0.496955      -0.253695
                                                         0.162492      -0.035541

                          1       4    4px              10.389228      -0.565392
                                                         3.849621      -0.038231
                                                         1.388401      -0.382373
                                                         0.496955       0.179070
                                                         0.162492       0.122714
                          1       4    4py              10.389228      -0.565392
                                                         3.849621      -0.038231
                                                         1.388401      -0.382373
                                                         0.496955       0.179070
                                                         0.162492       0.122714
                          1       4    4pz              10.389228      -0.565392
                                                         3.849621      -0.038231
                                                         1.388401      -0.382373
                                                         0.496955       0.179070
                                                         0.162492       0.122714

                          1       5    4dx2             10.389228       1.867377
                                                         3.849621       0.670994
                                                         1.388401       1.353441
                                                         0.496955       0.273538
                                                         0.162492       0.006620
                          1       5    4dxy             10.389228       3.234392
                                                         3.849621       1.162195
                                                         1.388401       2.344229
                                                         0.496955       0.473781
                                                         0.162492       0.011466
                          1       5    4dxz             10.389228       3.234392
                                                         3.849621       1.162195
                                                         1.388401       2.344229
                                                         0.496955       0.473781
                                                         0.162492       0.011466
                          1       5    4dy2             10.389228       1.867377
                                                         3.849621       0.670994
                                                         1.388401       1.353441
                                                         0.496955       0.273538
                                                         0.162492       0.006620
                          1       5    4dyz             10.389228       3.234392
                                                         3.849621       1.162195
                                                         1.388401       2.344229
                                                         0.496955       0.473781
                                                         0.162492       0.011466
                          1       5    4dz2             10.389228       1.867377
                                                         3.849621       0.670994
                                                         1.388401       1.353441
                                                         0.496955       0.273538
                                                         0.162492       0.006620

       Atomic covalent radius [Angstrom]:                                  0.730

       Atomic van der Waals radius [Angstrom]:                             1.520

     GTH Potential information for                                    GTH-PBE-q6

       Description:                       Goedecker-Teter-Hutter pseudopotential
                                           Goedecker et al., PRB 54, 1703 (1996)
                                          Hartwigsen et al., PRB 58, 3641 (1998)
                                                      Krack, TCA 114, 145 (2005)

       Gaussian exponent of the core charge distribution:               8.360253
       Electronic configuration (s p d ...):                               2   4

       Parameters of the local part of the GTH pseudopotential:

                          rloc        C1          C2          C3          C4
                        0.244554  -16.667215    2.487311

       Parameters of the non-local part of the GTH pseudopotential:

                   l      r(l)      h(i,j,l)

                   0    0.220956   18.337458
                   1    0.211332

  2. Atomic kind: H                                     Number of atoms:     460

     Orbital Basis Set                                        DZVP-MOLOPT-SR-GTH

       Number of orbital shell sets:                                           1
       Number of orbital shells:                                               3
       Number of primitive Cartesian functions:                                5
       Number of Cartesian basis functions:                                    5
       Number of spherical basis functions:                                    5
       Norm type:                                                              2

       Normalised Cartesian orbitals:

                        Set   Shell   Orbital            Exponent    Coefficient

                          1       1    2s               10.068468      -0.133023
                                                         2.680223      -0.177618
                                                         0.791502      -0.258419
                                                         0.239116      -0.107525
                                                         0.082193      -0.014019

                          1       2    3s               10.068468       0.344673
                                                         2.680223       1.819821
                                                         0.791502      -0.999069
                                                         0.239116       0.017430
                                                         0.082193       0.082660

                          1       3    3px              10.068468       0.155326
                                                         2.680223       0.367157
                                                         0.791502       0.311480
                                                         0.239116       0.080105
                                                         0.082193       0.033440
                          1       3    3py              10.068468       0.155326
                                                         2.680223       0.367157
                                                         0.791502       0.311480
                                                         0.239116       0.080105
                                                         0.082193       0.033440
                          1       3    3pz              10.068468       0.155326
                                                         2.680223       0.367157
                                                         0.791502       0.311480
                                                         0.239116       0.080105
                                                         0.082193       0.033440

       Atomic covalent radius [Angstrom]:                                  0.320

       Atomic van der Waals radius [Angstrom]:                             1.090

     GTH Potential information for                                    GTH-PBE-q1

       Description:                       Goedecker-Teter-Hutter pseudopotential
                                           Goedecker et al., PRB 54, 1703 (1996)
                                          Hartwigsen et al., PRB 58, 3641 (1998)
                                                      Krack, TCA 114, 145 (2005)

       Gaussian exponent of the core charge distribution:              12.500000
       Electronic configuration (s p d ...):                                   1

       Parameters of the local part of the GTH pseudopotential:

                          rloc        C1          C2          C3          C4
                        0.200000   -4.178900    0.724463

  3. Atomic kind: Pt                                    Number of atoms:     216

     Orbital Basis Set                      DZVP-A5-Q10-323-MOL-T1-DERIVED_SET-1

       Number of orbital shell sets:                                           1
       Number of orbital shells:                                               6
       Number of primitive Cartesian functions:                                5
       Number of Cartesian basis functions:                                   23
       Number of spherical basis functions:                                   20
       Norm type:                                                              2

       Normalised Cartesian orbitals:

                        Set   Shell   Orbital            Exponent    Coefficient

                          1       1    2s                2.521825       0.177473
                                                         1.453920      -0.063399
                                                         0.614053      -0.407089
                                                         0.232656       0.262254
                                                         0.074788       0.047371

                          1       2    3s                2.521825      -0.049056
                                                         1.453920       0.044904
                                                         0.614053      -0.009756
                                                         0.232656      -0.144709
                                                         0.074788       0.144085

                          1       3    3px               2.521825      -0.317572
                                                         1.453920       0.534826
                                                         0.614053      -0.489458
                                                         0.232656       0.245631
                                                         0.074788       0.018221
                          1       3    3py               2.521825      -0.317572
                                                         1.453920       0.534826
                                                         0.614053      -0.489458
                                                         0.232656       0.245631
                                                         0.074788       0.018221
                          1       3    3pz               2.521825      -0.317572
                                                         1.453920       0.534826
                                                         0.614053      -0.489458
                                                         0.232656       0.245631
                                                         0.074788       0.018221

                          1       4    4dx2              2.521825       3.008522
                                                         1.453920      -1.224251
                                                         0.614053       0.225691
                                                         0.232656       0.125144
                                                         0.074788      -0.015348
                          1       4    4dxy              2.521825       5.210912
                                                         1.453920      -2.120465
                                                         0.614053       0.390909
                                                         0.232656       0.216756
                                                         0.074788      -0.026584
                          1       4    4dxz              2.521825       5.210912
                                                         1.453920      -2.120465
                                                         0.614053       0.390909
                                                         0.232656       0.216756
                                                         0.074788      -0.026584
                          1       4    4dy2              2.521825       3.008522
                                                         1.453920      -1.224251
                                                         0.614053       0.225691
                                                         0.232656       0.125144
                                                         0.074788      -0.015348
                          1       4    4dyz              2.521825       5.210912
                                                         1.453920      -2.120465
                                                         0.614053       0.390909
                                                         0.232656       0.216756
                                                         0.074788      -0.026584
                          1       4    4dz2              2.521825       3.008522
                                                         1.453920      -1.224251
                                                         0.614053       0.225691
                                                         0.232656       0.125144
                                                         0.074788      -0.015348

                          1       5    5dx2              2.521825       0.698026
                                                         1.453920      -1.511486
                                                         0.614053      -0.335394
                                                         0.232656      -0.025564
                                                         0.074788      -0.002699
                          1       5    5dxy              2.521825       1.209017
                                                         1.453920      -2.617970
                                                         0.614053      -0.580920
                                                         0.232656      -0.044277
                                                         0.074788      -0.004674
                          1       5    5dxz              2.521825       1.209017
                                                         1.453920      -2.617970
                                                         0.614053      -0.580920
                                                         0.232656      -0.044277
                                                         0.074788      -0.004674
                          1       5    5dy2              2.521825       0.698026
                                                         1.453920      -1.511486
                                                         0.614053      -0.335394
                                                         0.232656      -0.025564
                                                         0.074788      -0.002699
                          1       5    5dyz              2.521825       1.209017
                                                         1.453920      -2.617970
                                                         0.614053      -0.580920
                                                         0.232656      -0.044277
                                                         0.074788      -0.004674
                          1       5    5dz2              2.521825       0.698026
                                                         1.453920      -1.511486
                                                         0.614053      -0.335394
                                                         0.232656      -0.025564
                                                         0.074788      -0.002699

                          1       6    6dx2              2.521825       0.831079
                                                         1.453920      -0.709226
                                                         0.614053      -0.137351
                                                         0.232656       0.068642
                                                         0.074788       0.011745
                          1       6    6dxy              2.521825       1.439472
                                                         1.453920      -1.228415
                                                         0.614053      -0.237899
                                                         0.232656       0.118891
                                                         0.074788       0.020343
                          1       6    6dxz              2.521825       1.439472
                                                         1.453920      -1.228415
                                                         0.614053      -0.237899
                                                         0.232656       0.118891
                                                         0.074788       0.020343
                          1       6    6dy2              2.521825       0.831079
                                                         1.453920      -0.709226
                                                         0.614053      -0.137351
                                                         0.232656       0.068642
                                                         0.074788       0.011745
                          1       6    6dyz              2.521825       1.439472
                                                         1.453920      -1.228415
                                                         0.614053      -0.237899
                                                         0.232656       0.118891
                                                         0.074788       0.020343
                          1       6    6dz2              2.521825       0.831079
                                                         1.453920      -0.709226
                                                         0.614053      -0.137351
                                                         0.232656       0.068642
                                                         0.074788       0.011745

       Atomic covalent radius [Angstrom]:                                  1.300

       Atomic van der Waals radius [Angstrom]:                             1.750

     GTH Potential information for                                   GTH-PBE-q10

       Description:                       Goedecker-Teter-Hutter pseudopotential
                                           Goedecker et al., PRB 54, 1703 (1996)
                                          Hartwigsen et al., PRB 58, 3641 (1998)
                                                      Krack, TCA 114, 145 (2005)

       Gaussian exponent of the core charge distribution:               1.317676
       Electronic configuration (s p d ...):                           1   0   9

       Parameters of the local part of the GTH pseudopotential:

                          rloc        C1          C2          C3          C4
                        0.616000   11.313635

       Parameters of the non-local part of the GTH pseudopotential:

                   l      r(l)      h(i,j,l)

                   0    0.550904    4.733491   -1.784594
                                   -1.784594    2.303901
                   1    0.674138    2.534798   -1.778066
                                   -1.778066    2.103836
                   2    0.457392   -7.264011    2.558665
                                    2.558665   -2.901253


 MOLECULE KIND INFORMATION


 All atoms are their own molecule, skipping detailed information


 TOTAL NUMBERS AND MAXIMUM NUMBERS

  Total number of            - Atomic kinds:                                   3
                             - Atoms:                                        906
                             - Shell sets:                                   906
                             - Shells:                                      3826
                             - Primitive Cartesian functions:               4530
                             - Cartesian basis functions:                  10488
                             - Spherical basis functions:                   9610

  Maximum angular momentum of- Orbital basis functions:                        2
                             - Local part of the GTH pseudopotential:          2
                             - Non-local part of the GTH pseudopotential:      4


 MODULE QUICKSTEP:  ATOMIC COORDINATES IN angstrom

 Atom  Kind  Element       X           Y           Z          Z(eff)       Mass
    1   1 O    8       6.870000   -4.610000    8.950001       6.0000     15.9994
    2   2 H    1       7.120000   -4.580000    7.970000       1.0000      1.0079
    3   2 H    1       6.510000   -5.560000    9.130000       1.0000      1.0079
    4   1 O    8       9.100000    1.660000   15.190001       6.0000     15.9994
    5   2 H    1       8.610001    1.020000   14.560001       1.0000      1.0079
    6   2 H    1       8.650001    2.530000   15.080000       1.0000      1.0079
    7   1 O    8     -13.260001  -30.110001   11.710000       6.0000     15.9994
    8   2 H    1     -13.210001  -29.130001   11.910001       1.0000      1.0079
    9   2 H    1     -12.270001  -30.340002   11.810001       1.0000      1.0079
   10   1 O    8      21.550003    2.810000    9.480001       6.0000     15.9994
   11   2 H    1      21.840000    3.590000    9.110001       1.0000      1.0079
   12   2 H    1      20.620001    2.890000    9.700001       1.0000      1.0079
   13   1 O    8      17.340000  -33.010002   21.530001       6.0000     15.9994
   14   2 H    1      17.700001  -32.200005   21.940001       1.0000      1.0079
   15   2 H    1      17.060001  -32.670002   20.600002       1.0000      1.0079
   16   1 O    8      18.090002   27.560001   22.670002       6.0000     15.9994
   17   2 H    1      17.790001   28.350000   22.230000       1.0000      1.0079
   18   2 H    1      17.420002   27.440002   23.470001       1.0000      1.0079
   19   1 O    8     -17.500002    4.670000   29.190002       6.0000     15.9994
   20   2 H    1     -17.330000    5.050000   30.090000       1.0000      1.0079
   21   2 H    1     -17.580002    3.680000   29.320002       1.0000      1.0079
   22   1 O    8      11.270000   29.430000    8.230000       6.0000     15.9994
   23   2 H    1      12.270001   29.370001    8.440001       1.0000      1.0079
   24   2 H    1      19.260002   15.520000    8.790001       1.0000      1.0079
   25   1 O    8     -34.310001  -31.680002   19.260002       6.0000     15.9994
   26   2 H    1     -35.170002  -31.440001   19.600000       1.0000      1.0079
   27   2 H    1     -33.910004  -30.780001   19.100000       1.0000      1.0079
   28   1 O    8      19.660000   12.730000   23.820002       6.0000     15.9994
   29   2 H    1      20.020000   12.660000   24.810001       1.0000      1.0079
   30   2 H    1      19.440001   11.810001   23.600002       1.0000      1.0079
   31   1 O    8      17.280001   -6.800000   20.520000       6.0000     15.9994
   32   2 H    1      17.570002   -7.550001   19.780001       1.0000      1.0079
   33   2 H    1      17.750000   -7.090001   21.340000       1.0000      1.0079
   34   1 O    8     -11.200000  -43.410000    9.010000       6.0000     15.9994
   35   2 H    1     -10.800000  -44.310001    9.020000       1.0000      1.0079
   36   2 H    1     -11.390000  -43.070000   10.010000       1.0000      1.0079
   37   1 O    8     -20.410002  -21.150000   27.320002       6.0000     15.9994
   38   2 H    1     -21.000002  -20.930002   26.590002       1.0000      1.0079
   39   2 H    1     -20.490000  -22.110003   27.560001       1.0000      1.0079
   40   1 O    8      34.740002   21.880001   12.520000       6.0000     15.9994
   41   2 H    1      34.170002   22.720001   12.570001       1.0000      1.0079
   42   2 H    1      34.770004   21.790001   13.530001       1.0000      1.0079
   43   1 O    8      -5.210000  -16.300001   33.170002       6.0000     15.9994
   44   2 H    1      -4.850000  -15.410002   32.980000       1.0000      1.0079
   45   2 H    1      -6.250000  -16.190001   32.980000       1.0000      1.0079
   46   1 O    8       1.220000   20.400002   31.840002       6.0000     15.9994
   47   2 H    1       1.280000   20.559999   30.880001       1.0000      1.0079
   48   2 H    1       1.930000   19.720001   32.130001       1.0000      1.0079
   49   1 O    8     -17.810001   23.370001   32.510002       6.0000     15.9994
   50   2 H    1     -18.090002   22.510002   33.020000       1.0000      1.0079
   51   2 H    1     -18.640001   23.900002   32.560001       1.0000      1.0079
   52   1 O    8     -15.020000    9.510000   15.310000       6.0000     15.9994
   53   2 H    1     -14.990001    9.180000   14.340000       1.0000      1.0079
   54   2 H    1     -14.130001    9.170000   15.560001       1.0000      1.0079
   55   1 O    8       5.790000  -16.020000   28.830002       6.0000     15.9994
   56   2 H    1       5.300000  -16.620001   28.190002       1.0000      1.0079
   57   2 H    1       5.180000  -16.040001   29.610003       1.0000      1.0079
   58   1 O    8      22.210003    0.130000    8.400001       6.0000     15.9994
   59   2 H    1      21.310001   -0.310000    8.620001       1.0000      1.0079
   60   2 H    1      22.050001    1.090000    8.580000       1.0000      1.0079
   61   1 O    8     -21.770000   43.640003   28.670002       6.0000     15.9994
   62   2 H    1     -21.370001   43.000000   29.330002       1.0000      1.0079
   63   2 H    1      -4.540000   43.460003   27.750000       1.0000      1.0079
   64   1 O    8      34.770004  -29.720001   18.960001       6.0000     15.9994
   65   2 H    1      34.660000  -29.139999   19.740002       1.0000      1.0079
   66   2 H    1      52.540001  -30.200003   19.070000       1.0000      1.0079
   67   1 O    8     -11.780001    6.270000   27.010002       6.0000     15.9994
   68   2 H    1     -20.290001   21.660002   26.470001       1.0000      1.0079
   69   2 H    1     -11.430000    6.550000   27.880001       1.0000      1.0079
   70   1 O    8       1.760000   11.280001   32.130001       6.0000     15.9994
   71   2 H    1       1.400000   10.440001   32.430004       1.0000      1.0079
   72   2 H    1       1.590000   11.230000   31.170002       1.0000      1.0079
   73   1 O    8     -26.980001   -4.480000   32.050003       6.0000     15.9994
   74   2 H    1     -26.220001   -4.110000   32.520000       1.0000      1.0079
   75   2 H    1     -26.950001   -5.450000   32.160000       1.0000      1.0079
   76   1 O    8     -11.710000   -0.970000   21.450003       6.0000     15.9994
   77   2 H    1     -11.210001   -0.350000   20.840000       1.0000      1.0079
   78   2 H    1     -10.970000   -1.510000   21.800001       1.0000      1.0079
   79   1 O    8       3.300000  -42.070004   14.890001       6.0000     15.9994
   80   2 H    1       3.610000  -41.660004   14.050001       1.0000      1.0079
   81   2 H    1       2.330000  -41.900002   14.780001       1.0000      1.0079
   82   1 O    8      24.440001  -19.580000   12.370001       6.0000     15.9994
   83   2 H    1      24.640003  -18.750002   11.780001       1.0000      1.0079
   84   2 H    1      23.750000  -20.090000   11.800001       1.0000      1.0079
   85   1 O    8      -0.770000   11.380000   12.060001       6.0000     15.9994
   86   2 H    1       0.020000   11.730001   12.400000       1.0000      1.0079
   87   2 H    1      -0.830000   10.470000   11.860001       1.0000      1.0079
   88   1 O    8      10.070001   -2.670000   12.770000       6.0000     15.9994
   89   2 H    1      -6.380000   -2.050000   13.440001       1.0000      1.0079
   90   2 H    1      10.650001   -2.600000   11.970000       1.0000      1.0079
   91   1 O    8       0.560000   -5.060000   16.990002       6.0000     15.9994
   92   2 H    1       1.060000   -4.980001   17.860001       1.0000      1.0079
   93   2 H    1       0.890000   -4.340000   16.390001       1.0000      1.0079
   94   1 O    8      15.320001   59.080006   15.960001       6.0000     15.9994
   95   2 H    1      15.120001   60.010002   16.070002       1.0000      1.0079
   96   2 H    1      14.720001   58.540001   16.530001       1.0000      1.0079
   97   1 O    8     -24.940002  -15.530001    8.430000       6.0000     15.9994
   98   2 H    1     -24.810001  -14.530001    8.430000       1.0000      1.0079
   99   2 H    1     -24.030001  -15.810001    8.670000       1.0000      1.0079
  100   1 O    8       1.230000    9.680000    9.740001       6.0000     15.9994
  101   2 H    1       0.210000    9.730001    9.590000       1.0000      1.0079
  102   2 H    1       1.560000   10.420000    9.260000       1.0000      1.0079
  103   1 O    8      29.430000    3.880000    8.940001       6.0000     15.9994
  104   2 H    1      30.150002    3.370000    9.320001       1.0000      1.0079
  105   2 H    1      12.690001    3.880000    7.980001       1.0000      1.0079
  106   1 O    8      -0.670000   17.250000    9.200000       6.0000     15.9994
  107   2 H    1       0.270000   16.880001    9.280001       1.0000      1.0079
  108   2 H    1      -1.170000   16.970001    8.390000       1.0000      1.0079
  109   1 O    8      32.790001    5.540000   13.980001       6.0000     15.9994
  110   2 H    1      31.910002    5.860000   13.660001       1.0000      1.0079
  111   2 H    1      33.130001    6.160001   14.630001       1.0000      1.0079
  112   1 O    8     -41.020004    6.090000   18.400000       6.0000     15.9994
  113   2 H    1     -41.119999    6.450000   17.540001       1.0000      1.0079
  114   2 H    1     -40.080002    5.700001   18.440001       1.0000      1.0079
  115   1 O    8      10.130000   18.740002   11.710000       6.0000     15.9994
  116   2 H    1       9.150001   18.490002   11.570001       1.0000      1.0079
  117   2 H    1      10.330000   19.110001   10.840001       1.0000      1.0079
  118   1 O    8     -28.420002   20.980000   21.049999       6.0000     15.9994
  119   2 H    1     -28.190002   20.430000   21.809999       1.0000      1.0079
  120   2 H    1     -27.810001   20.680000   20.410002       1.0000      1.0079
  121   1 O    8       4.030000   -6.730001   15.150002       6.0000     15.9994
  122   2 H    1       4.580000   -6.480000   15.900001       1.0000      1.0079
  123   2 H    1       3.970000   -5.840001   14.680000       1.0000      1.0079
  124   1 O    8     -30.190001   12.400000   30.190001       6.0000     15.9994
  125   2 H    1     -38.460003   26.870001   31.150002       1.0000      1.0079
  126   2 H    1     -30.090000   11.430000   29.860001       1.0000      1.0079
  127   1 O    8     -11.410000  -13.020000   11.380000       6.0000     15.9994
  128   2 H    1     -10.830001  -12.370001   11.060000       1.0000      1.0079
  129   2 H    1     -19.300001    1.120000   12.090001       1.0000      1.0079
  130   1 O    8     -10.760001    9.070001   17.830002       6.0000     15.9994
  131   2 H    1      -9.840000    9.130000   17.570002       1.0000      1.0079
  132   2 H    1     -10.690001    8.290001   18.500002       1.0000      1.0079
  133   1 O    8       1.650000   25.160000    9.100000       6.0000     15.9994
  134   2 H    1       1.220000   25.320000    8.240001       1.0000      1.0079
  135   2 H    1       1.250000   24.200001    9.100000       1.0000      1.0079
  136   1 O    8     -32.830002    8.280001   28.110001       6.0000     15.9994
  137   2 H    1     -33.670002    8.230000   28.540001       1.0000      1.0079
  138   2 H    1     -32.330002    7.400000   28.170002       1.0000      1.0079
  139   1 O    8     -12.630000   -4.100000   33.240002       6.0000     15.9994
  140   2 H    1     -11.610001   -4.090000   33.060001       1.0000      1.0079
  141   2 H    1     -13.010001   -3.170000   33.000000       1.0000      1.0079
  142   1 O    8       5.870000   10.260000   14.460001       6.0000     15.9994
  143   2 H    1       6.520000   10.160000   13.720001       1.0000      1.0079
  144   2 H    1       6.340000   10.780001   15.150002       1.0000      1.0079
  145   1 O    8     -12.430000   37.700001   15.660001       6.0000     15.9994
  146   2 H    1       4.890000   38.390003   15.050001       1.0000      1.0079
  147   2 H    1     -11.900001   37.700001   16.430000       1.0000      1.0079
  148   1 O    8     -31.850002   14.330001   29.890001       6.0000     15.9994
  149   2 H    1     -31.380003   13.480000   29.950001       1.0000      1.0079
  150   2 H    1     -31.310001   15.110001   30.260002       1.0000      1.0079
  151   1 O    8      -4.770000   -7.480001   20.870001       6.0000     15.9994
  152   2 H    1      -3.940000   -7.200000   20.470001       1.0000      1.0079
  153   2 H    1      -5.560000   -7.110000   20.310001       1.0000      1.0079
  154   1 O    8     -29.000000  -15.520000   17.380001       6.0000     15.9994
  155   2 H    1     -28.850002  -16.330002   17.930000       1.0000      1.0079
  156   2 H    1     -29.680002  -15.090000   17.910002       1.0000      1.0079
  157   1 O    8      23.380001  -16.870001    9.060000       6.0000     15.9994
  158   2 H    1      22.720001  -17.580002    8.880001       1.0000      1.0079
  159   2 H    1      23.800001  -16.660002    8.190001       1.0000      1.0079
  160   1 O    8      -4.360000   -3.670000    9.040001       6.0000     15.9994
  161   2 H    1      -3.860000   -4.380000    9.380000       1.0000      1.0079
  162   2 H    1      -4.620000   -3.870000    8.120001       1.0000      1.0079
  163   1 O    8      44.640003   -9.830000   20.530003       6.0000     15.9994
  164   2 H    1      45.070004  -10.380001   19.790001       1.0000      1.0079
  165   2 H    1      45.350002   -9.120001   20.760002       1.0000      1.0079
  166   1 O    8       6.750000   -6.040000   29.260002       6.0000     15.9994
  167   2 H    1       7.030000   -5.090000   29.210003       1.0000      1.0079
  168   2 H    1       6.090000   -6.130000   28.530003       1.0000      1.0079
  169   1 O    8     -52.740002   -0.920000   22.490002       6.0000     15.9994
  170   2 H    1     -36.280003   -0.030000   22.620001       1.0000      1.0079
  171   2 H    1     -35.720001   -1.150000   23.420000       1.0000      1.0079
  172   1 O    8      12.070000  -13.640001   14.910001       6.0000     15.9994
  173   2 H    1      12.540001  -14.520000   14.850000       1.0000      1.0079
  174   2 H    1      11.290001  -13.730000   15.500001       1.0000      1.0079
  175   1 O    8       8.830000  -27.840002   17.900002       6.0000     15.9994
  176   2 H    1       8.810000  -27.800003   16.860001       1.0000      1.0079
  177   2 H    1       8.660001  -26.950001   18.350000       1.0000      1.0079
  178   1 O    8      -6.560000   20.330000   28.510000       6.0000     15.9994
  179   2 H    1      -6.350000   19.780001   27.700003       1.0000      1.0079
  180   2 H    1      -7.470000   19.940001   28.790001       1.0000      1.0079
  181   1 O    8      18.690001   16.920000    9.510000       6.0000     15.9994
  182   2 H    1      18.820002   16.900002   10.550001       1.0000      1.0079
  183   2 H    1      19.480001   17.490002    9.190001       1.0000      1.0079
  184   1 O    8      17.040001  -23.460003   20.870001       6.0000     15.9994
  185   2 H    1      16.560001  -23.500002   20.030001       1.0000      1.0079
  186   2 H    1      17.980001  -23.800001   20.610001       1.0000      1.0079
  187   1 O    8     -21.740000   45.709999   12.230001       6.0000     15.9994
  188   2 H    1     -21.790001   45.680004   13.180000       1.0000      1.0079
  189   2 H    1     -22.510002   46.350002   12.100000       1.0000      1.0079
  190   1 O    8      16.070002   18.930000   12.560000       6.0000     15.9994
  191   2 H    1      15.430001   18.230001   12.330000       1.0000      1.0079
  192   2 H    1      15.600000   19.800001   12.370001       1.0000      1.0079
  193   1 O    8       5.150001   -7.160000   32.050003       6.0000     15.9994
  194   2 H    1       5.300000   -8.100000   32.240002       1.0000      1.0079
  195   2 H    1       5.190001   -7.080000   31.040001       1.0000      1.0079
  196   1 O    8     -30.740002  -15.660001   15.150002       6.0000     15.9994
  197   2 H    1     -30.120001  -15.590000   15.950001       1.0000      1.0079
  198   2 H    1     -30.850000  -14.650001   15.040001       1.0000      1.0079
  199   1 O    8     -20.540001   12.330000   29.970001       6.0000     15.9994
  200   2 H    1     -21.020000   11.490001   29.970001       1.0000      1.0079
  201   2 H    1     -20.220001   12.490001   30.930002       1.0000      1.0079
  202   1 O    8      16.040001   13.370000    9.390000       6.0000     15.9994
  203   2 H    1      15.810001   12.510000    9.630001       1.0000      1.0079
  204   2 H    1      15.190001   13.750001    9.020000       1.0000      1.0079
  205   1 O    8      19.340002    6.090000   12.960000       6.0000     15.9994
  206   2 H    1      11.300000   20.530003   13.900002       1.0000      1.0079
  207   2 H    1      18.820002    5.370000   12.450000       1.0000      1.0079
  208   1 O    8     -29.090002   -4.280000   13.900002       6.0000     15.9994
  209   2 H    1     -28.080002   -4.290000   13.780001       1.0000      1.0079
  210   2 H    1     -29.420002   -4.160000   12.950001       1.0000      1.0079
  211   1 O    8       1.950000    6.850000   24.510002       6.0000     15.9994
  212   2 H    1       2.440000    6.250000   25.060001       1.0000      1.0079
  213   2 H    1       1.160000    6.310000   24.209999       1.0000      1.0079
  214   1 O    8      24.810001   11.430000   29.470001       6.0000     15.9994
  215   2 H    1      24.000000   11.960001   29.180002       1.0000      1.0079
  216   2 H    1      24.490002   10.530001   29.290001       1.0000      1.0079
  217   1 O    8     -43.660004   14.520000   13.290001       6.0000     15.9994
  218   2 H    1     -44.400002   13.900002   13.100000       1.0000      1.0079
  219   2 H    1     -43.660004   14.760000   14.260001       1.0000      1.0079
  220   1 O    8      38.180000    6.500000   32.580002       6.0000     15.9994
  221   2 H    1      38.450005    7.050000   33.350002       1.0000      1.0079
  222   2 H    1      39.070004    6.020000   32.389999       1.0000      1.0079
  223   1 O    8       6.370000    0.200000   18.770000       6.0000     15.9994
  224   2 H    1      24.070000    0.680000   18.660000       1.0000      1.0079
  225   2 H    1       6.470000   -0.670000   18.200001       1.0000      1.0079
  226   1 O    8      15.270000   41.800003   26.200001       6.0000     15.9994
  227   2 H    1      14.320001   42.140003   26.210001       1.0000      1.0079
  228   2 H    1      32.090000   40.919998   25.790003       1.0000      1.0079
  229   1 O    8     -14.590001   33.900002   32.570004       6.0000     15.9994
  230   2 H    1     -13.780001   34.150002   32.090000       1.0000      1.0079
  231   2 H    1     -14.340000   33.930000   33.560001       1.0000      1.0079
  232   1 O    8       4.200000   -0.920000   26.120003       6.0000     15.9994
  233   2 H    1       3.600000   -1.580000   25.700001       1.0000      1.0079
  234   2 H    1       4.150000   -0.080000   25.580002       1.0000      1.0079
  235   1 O    8      -0.510000   32.290001   25.240002       6.0000     15.9994
  236   2 H    1      -1.060000   31.550003   24.890001       1.0000      1.0079
  237   2 H    1      -0.610000   32.850002   24.430000       1.0000      1.0079
  238   1 O    8       7.640000    5.740000   26.190002       6.0000     15.9994
  239   2 H    1      -0.900000   20.790001   25.280001       1.0000      1.0079
  240   2 H    1       6.670001    5.660000   26.430000       1.0000      1.0079
  241   1 O    8      18.210001   -4.350000   33.170002       6.0000     15.9994
  242   2 H    1      17.390001   -4.860000   33.000000       1.0000      1.0079
  243   2 H    1      18.870001   -5.030000   32.880001       1.0000      1.0079
  244   1 O    8      -2.330000   -7.300000   19.940001       6.0000     15.9994
  245   2 H    1      -2.260000   -8.230000   19.670002       1.0000      1.0079
  246   2 H    1      -1.520000   -7.070000   20.430000       1.0000      1.0079
  247   1 O    8      16.120001    2.130000   29.770002       6.0000     15.9994
  248   2 H    1      15.570001    2.020000   30.600002       1.0000      1.0079
  249   2 H    1      15.480001    1.670000   29.160002       1.0000      1.0079
  250   1 O    8      28.500002  -19.570002   11.810001       6.0000     15.9994
  251   2 H    1      27.980001  -19.030001   12.500000       1.0000      1.0079
  252   2 H    1      28.810001  -18.970001   11.050000       1.0000      1.0079
  253   1 O    8      -6.200000    2.090000   26.130001       6.0000     15.9994
  254   2 H    1      -6.220000    1.100000   26.390001       1.0000      1.0079
  255   2 H    1      -6.380000    2.160000   25.170002       1.0000      1.0079
  256   1 O    8       8.280001  -24.930000   15.060000       6.0000     15.9994
  257   2 H    1       8.620001  -24.050003   15.360001       1.0000      1.0079
  258   2 H    1       7.800000  -24.799999   14.150001       1.0000      1.0079
  259   1 O    8     -23.240002   25.950001   18.640001       6.0000     15.9994
  260   2 H    1     -23.620003   26.170002   17.810001       1.0000      1.0079
  261   2 H    1     -22.320002   25.900002   18.520000       1.0000      1.0079
  262   1 O    8       1.540000   -8.310000   22.959999       6.0000     15.9994
  263   2 H    1       0.590000   -8.140000   22.959999       1.0000      1.0079
  264   2 H    1       1.970000   -7.510000   23.320000       1.0000      1.0079
  265   1 O    8      30.750000   -8.170000   12.030001       6.0000     15.9994
  266   2 H    1      29.810001   -8.340000   12.380000       1.0000      1.0079
  267   2 H    1      39.200001    7.390000   11.810001       1.0000      1.0079
  268   1 O    8      13.500000   -6.090000   25.750000       6.0000     15.9994
  269   2 H    1      13.160001   -6.230001   24.810001       1.0000      1.0079
  270   2 H    1      14.460001   -5.700001   25.540001       1.0000      1.0079
  271   1 O    8      -3.600000   -1.500000   13.210001       6.0000     15.9994
  272   2 H    1      -4.180000   -1.160000   13.950001       1.0000      1.0079
  273   2 H    1      -3.390000   -2.430000   13.550000       1.0000      1.0079
  274   1 O    8      -6.880000  -12.080001   31.530001       6.0000     15.9994
  275   2 H    1      -6.850000  -12.060001   30.580002       1.0000      1.0079
  276   2 H    1      -6.630001  -11.190001   31.860001       1.0000      1.0079
  277   1 O    8       9.570000   12.560000   15.220001       6.0000     15.9994
  278   2 H    1      -7.260000   13.530001   15.660001       1.0000      1.0079
  279   2 H    1       9.930000   12.520000   14.300001       1.0000      1.0079
  280   1 O    8      37.140003  -12.450000   30.180000       6.0000     15.9994
  281   2 H    1      38.120003  -12.510000   30.389999       1.0000      1.0079
  282   2 H    1      37.200005  -12.200001   29.180002       1.0000      1.0079
  283   1 O    8      11.670000  -17.510000   16.650002       6.0000     15.9994
  284   2 H    1       2.440000   -2.550000   16.260000       1.0000      1.0079
  285   2 H    1      11.850000  -18.320002   16.150002       1.0000      1.0079
  286   1 O    8     -35.000004   24.510002   25.290001       6.0000     15.9994
  287   2 H    1     -18.250000   24.630001   24.340000       1.0000      1.0079
  288   2 H    1     -34.040001   24.290001   25.520000       1.0000      1.0079
  289   1 O    8      -4.590000    7.240000   10.810001       6.0000     15.9994
  290   2 H    1      -5.010000    7.990000   11.280001       1.0000      1.0079
  291   2 H    1      -4.180000    6.700000   11.560000       1.0000      1.0079
  292   1 O    8      27.210003  -12.630000   28.580000       6.0000     15.9994
  293   2 H    1      26.250002  -12.660000   28.880003       1.0000      1.0079
  294   2 H    1      27.470001  -13.530001   28.540001       1.0000      1.0079
  295   1 O    8       4.760000   12.700001   32.530003       6.0000     15.9994
  296   2 H    1       4.590000   13.580000   32.800003       1.0000      1.0079
  297   2 H    1       4.340000   12.090001   33.120003       1.0000      1.0079
  298   1 O    8      -0.190000   13.690001   23.950003       6.0000     15.9994
  299   2 H    1       0.820000   13.650000   24.020002       1.0000      1.0079
  300   2 H    1      -0.550000   13.470001   24.830000       1.0000      1.0079
  301   1 O    8     -15.340000    7.160000    8.590000       6.0000     15.9994
  302   2 H    1     -15.470000    8.030001    9.050000       1.0000      1.0079
  303   2 H    1     -16.080000    6.600000    8.740000       1.0000      1.0079
  304   1 O    8       5.810000    4.610000   19.590000       6.0000     15.9994
  305   2 H    1       5.700001    4.050000   20.470001       1.0000      1.0079
  306   2 H    1       4.980001    4.420000   19.120001       1.0000      1.0079
  307   1 O    8     -28.850002   20.490000   12.960000       6.0000     15.9994
  308   2 H    1     -29.100000   19.490002   13.170000       1.0000      1.0079
  309   2 H    1     -29.450001   20.960003   13.640001       1.0000      1.0079
  310   1 O    8     -15.960001    8.720000   32.670002       6.0000     15.9994
  311   2 H    1     -15.160000    8.300000   32.230000       1.0000      1.0079
  312   2 H    1     -15.750000    8.620001   33.630001       1.0000      1.0079
  313   1 O    8     -15.640001   12.290001    8.110001       6.0000     15.9994
  314   2 H    1     -16.540001   12.610001    8.310000       1.0000      1.0079
  315   2 H    1     -15.180001   13.180000    8.080000       1.0000      1.0079
  316   1 O    8       2.460000   -6.490001   32.010002       6.0000     15.9994
  317   2 H    1       2.110000   -7.330000   32.260002       1.0000      1.0079
  318   2 H    1       3.420000   -6.630001   32.110001       1.0000      1.0079
  319   1 O    8      -5.220000  -15.940001    9.120001       6.0000     15.9994
  320   2 H    1      -4.840000  -16.850000    9.280001       1.0000      1.0079
  321   2 H    1      -5.320000  -15.560001   10.070001       1.0000      1.0079
  322   1 O    8      30.350000   -9.400001   23.570002       6.0000     15.9994
  323   2 H    1      30.290001  -10.250001   23.150002       1.0000      1.0079
  324   2 H    1      29.690001   -9.490001   24.310001       1.0000      1.0079
  325   1 O    8     -14.810000   -5.210000   19.330002       6.0000     15.9994
  326   2 H    1     -15.540000   -5.760000   19.850002       1.0000      1.0079
  327   2 H    1     -14.850000   -4.330000   19.830000       1.0000      1.0079
  328   1 O    8      -4.700000   -6.270000   23.150002       6.0000     15.9994
  329   2 H    1      -5.470000   -6.820001   23.590002       1.0000      1.0079
  330   2 H    1      -4.670000   -6.750000   22.240002       1.0000      1.0079
  331   1 O    8     -21.000002   45.150002   32.060001       6.0000     15.9994
  332   2 H    1     -20.559999   45.330002   31.190002       1.0000      1.0079
  333   2 H    1     -21.900002   45.530006   31.900002       1.0000      1.0079
  334   1 O    8     -11.110001  -13.270000   24.230001       6.0000     15.9994
  335   2 H    1     -11.510000  -12.730000   23.510000       1.0000      1.0079
  336   2 H    1     -11.570001  -13.120001   25.110001       1.0000      1.0079
  337   1 O    8      12.660000   29.740002   33.410000       6.0000     15.9994
  338   2 H    1      21.450003   15.870001   32.850002       1.0000      1.0079
  339   2 H    1      -5.230000   29.780003   33.240002       1.0000      1.0079
  340   1 O    8      24.130001   19.920002    8.970000       6.0000     15.9994
  341   2 H    1      23.610001   20.760002    8.920000       1.0000      1.0079
  342   2 H    1      23.940001   19.620001    8.030001       1.0000      1.0079
  343   1 O    8      -2.240000    7.900000   17.230000       6.0000     15.9994
  344   2 H    1      -1.350000    7.820001   16.830002       1.0000      1.0079
  345   2 H    1      -2.110000    8.650001   17.840000       1.0000      1.0079
  346   1 O    8      -1.820000   -5.910000   30.060001       6.0000     15.9994
  347   2 H    1      -2.680000   -5.420001   30.230003       1.0000      1.0079
  348   2 H    1      -1.420000   -6.040000   30.910000       1.0000      1.0079
  349   1 O    8      10.790000   -4.200000   22.450001       6.0000     15.9994
  350   2 H    1      11.200000   -5.100000   22.730000       1.0000      1.0079
  351   2 H    1       9.850000   -4.350000   22.100000       1.0000      1.0079
  352   1 O    8      -2.490000   20.790001   29.530001       6.0000     15.9994
  353   2 H    1      -2.280000   21.700001   29.850002       1.0000      1.0079
  354   2 H    1      -1.680000   20.180000   29.630001       1.0000      1.0079
  355   1 O    8       1.620000    5.750000   17.290001       6.0000     15.9994
  356   2 H    1       2.340000    5.820000   16.580002       1.0000      1.0079
  357   2 H    1       1.400000    4.790000   17.390001       1.0000      1.0079
  358   1 O    8       8.520000   21.900002   15.860001       6.0000     15.9994
  359   2 H    1       8.970000   22.720001   15.780001       1.0000      1.0079
  360   2 H    1       9.040001   21.260002   16.470001       1.0000      1.0079
  361   1 O    8     -29.790001    1.450000   24.710003       6.0000     15.9994
  362   2 H    1     -30.660002    1.860000   25.080002       1.0000      1.0079
  363   2 H    1     -29.010000    2.000000   25.110001       1.0000      1.0079
  364   1 O    8      -2.770000   48.549999   16.280001       6.0000     15.9994
  365   2 H    1      -2.950000   47.650002   16.660002       1.0000      1.0079
  366   2 H    1      -1.940000   48.410000   15.730000       1.0000      1.0079
  367   1 O    8      12.460001   21.990002    8.150001       6.0000     15.9994
  368   2 H    1      13.170000   21.340000    8.500000       1.0000      1.0079
  369   2 H    1      11.490001   21.830002    8.400001       1.0000      1.0079
  370   1 O    8     -14.020000   -2.790000   24.560001       6.0000     15.9994
  371   2 H    1     -14.460001   -2.190000   23.910000       1.0000      1.0079
  372   2 H    1     -13.320000   -3.210000   23.980000       1.0000      1.0079
  373   1 O    8      -3.630000   -4.790000   32.500004       6.0000     15.9994
  374   2 H    1      -3.730000   -4.840000   33.450005       1.0000      1.0079
  375   2 H    1      -4.560000   -4.660000   32.220001       1.0000      1.0079
  376   1 O    8      -9.810000   16.850000    8.240001       6.0000     15.9994
  377   2 H    1      -9.090000   17.100000    8.770000       1.0000      1.0079
  378   2 H    1     -10.110001   16.040001    8.600000       1.0000      1.0079
  379   1 O    8      -1.700000  -19.260002   25.270002       6.0000     15.9994
  380   2 H    1      -2.060000  -19.780001   26.049999       1.0000      1.0079
  381   2 H    1      -0.760000  -19.600000   25.300003       1.0000      1.0079
  382   1 O    8       5.040000   -8.920000   24.490002       6.0000     15.9994
  383   2 H    1       4.250000   -8.200001   24.520000       1.0000      1.0079
  384   2 H    1       5.210000   -9.180000   25.389999       1.0000      1.0079
  385   1 O    8      -6.510000   33.380001   11.870001       6.0000     15.9994
  386   2 H    1      -7.420001   33.510002   12.400000       1.0000      1.0079
  387   2 H    1      -6.490001   34.160000   11.280001       1.0000      1.0079
  388   1 O    8      -7.390000    7.490000   15.620001       6.0000     15.9994
  389   2 H    1      -7.600000    8.260000   16.190001       1.0000      1.0079
  390   2 H    1      -6.460000    7.620000   15.480001       1.0000      1.0079
  391   1 O    8       3.660000   10.240001   26.900002       6.0000     15.9994
  392   2 H    1       2.730000   10.190001   26.440001       1.0000      1.0079
  393   2 H    1       4.280000    9.710001   26.390001       1.0000      1.0079
  394   1 O    8       5.130000   31.230001   17.030001       6.0000     15.9994
  395   2 H    1      14.190001   15.930000   17.350002       1.0000      1.0079
  396   2 H    1       4.650001   30.820004   16.260000       1.0000      1.0079
  397   1 O    8      19.200001    4.260000    8.910000       6.0000     15.9994
  398   2 H    1      18.590000    3.850000    8.250000       1.0000      1.0079
  399   2 H    1      19.790001    4.790000    8.410000       1.0000      1.0079
  400   1 O    8      19.560001   19.090000   21.600000       6.0000     15.9994
  401   2 H    1      20.459999   18.800001   21.910002       1.0000      1.0079
  402   2 H    1      19.270000   19.860001   22.170000       1.0000      1.0079
  403   1 O    8      22.800003   48.410000   32.580002       6.0000     15.9994
  404   2 H    1      22.850000   48.440002   33.610001       1.0000      1.0079
  405   2 H    1      23.730001   48.780003   32.420002       1.0000      1.0079
  406   1 O    8       4.550000   -5.510000   20.650002       6.0000     15.9994
  407   2 H    1       3.710000   -5.440001   20.140001       1.0000      1.0079
  408   2 H    1       4.710000   -6.450000   20.730001       1.0000      1.0079
  409   1 O    8      17.520000    0.560000   11.850000       6.0000     15.9994
  410   2 H    1      18.240002   -0.070000   12.140001       1.0000      1.0079
  411   2 H    1      16.680000    0.380000   12.330000       1.0000      1.0079
  412   1 O    8     -27.360001  -13.630000   27.470001       6.0000     15.9994
  413   2 H    1     -28.130001  -13.060001   27.660000       1.0000      1.0079
  414   2 H    1     -27.620001  -14.560001   27.760000       1.0000      1.0079
  415   1 O    8     -13.780001    5.020000   25.940001       6.0000     15.9994
  416   2 H    1     -12.950001    5.260000   26.460001       1.0000      1.0079
  417   2 H    1     -13.940001    4.010000   25.830002       1.0000      1.0079
  418   1 O    8      20.280001   12.980001   10.930000       6.0000     15.9994
  419   2 H    1      20.570002   12.520000   10.060000       1.0000      1.0079
  420   2 H    1      21.110001   13.000001   11.500001       1.0000      1.0079
  421   1 O    8      23.059999    2.430000   11.690001       6.0000     15.9994
  422   2 H    1      22.100000    2.290000   11.720000       1.0000      1.0079
  423   2 H    1      23.350000    2.420000   10.740000       1.0000      1.0079
  424   1 O    8     -14.900002    8.190001   18.680000       6.0000     15.9994
  425   2 H    1     -15.700001    8.670000   18.920000       1.0000      1.0079
  426   2 H    1      -6.770000   -7.260000   18.260000       1.0000      1.0079
  427   1 O    8      -7.340000   -3.660000   29.380001       6.0000     15.9994
  428   2 H    1      -7.180000   -4.610000   29.210003       1.0000      1.0079
  429   2 H    1      -8.320000   -3.520000   29.340002       1.0000      1.0079
  430   1 O    8     -18.300001   15.470000   27.170002       6.0000     15.9994
  431   2 H    1     -17.480000   15.140000   26.770000       1.0000      1.0079
  432   2 H    1     -18.210001   16.420000   27.050001       1.0000      1.0079
  433   1 O    8     -13.160001  -28.120001   22.150002       6.0000     15.9994
  434   2 H    1     -12.790001  -29.050003   22.080002       1.0000      1.0079
  435   2 H    1     -13.200001  -27.910002   23.110001       1.0000      1.0079
  436   1 O    8       4.700000   20.900002   29.270000       6.0000     15.9994
  437   2 H    1       3.770000   20.510002   29.280003       1.0000      1.0079
  438   2 H    1      13.730000    5.520000   29.420002       1.0000      1.0079
  439   1 O    8       4.840000   11.330000   18.780001       6.0000     15.9994
  440   2 H    1       5.570001   10.690001   18.480000       1.0000      1.0079
  441   2 H    1       4.840000   11.280001   19.810001       1.0000      1.0079
  442   1 O    8      -2.180000   13.440001   32.240002       6.0000     15.9994
  443   2 H    1      -1.840000   14.140000   31.620003       1.0000      1.0079
  444   2 H    1      -2.580000   13.890000   33.070000       1.0000      1.0079
  445   1 O    8     -22.160000    9.630001   29.900002       6.0000     15.9994
  446   2 H    1     -21.709999    9.140000   29.160002       1.0000      1.0079
  447   2 H    1     -22.330000    8.900001   30.580002       1.0000      1.0079
  448   1 O    8       9.190001  -13.010001    9.610001       6.0000     15.9994
  449   2 H    1       9.250001  -13.510000   10.470000       1.0000      1.0079
  450   2 H    1      26.870001  -12.520000    9.560000       1.0000      1.0079
  451   1 O    8      27.180002    6.060000   29.050003       6.0000     15.9994
  452   2 H    1      26.910002    5.440001   28.300001       1.0000      1.0079
  453   2 H    1      26.990002    7.040000   28.830002       1.0000      1.0079
  454   1 O    8      -5.650000    3.830000   32.690002       6.0000     15.9994
  455   2 H    1      -5.180000    4.090000   33.490002       1.0000      1.0079
  456   2 H    1      -5.040000    3.660000   31.960001       1.0000      1.0079
  457   1 O    8      13.660001  -12.130001   29.640003       6.0000     15.9994
  458   2 H    1      13.460001  -12.800001   28.940001       1.0000      1.0079
  459   2 H    1      12.940001  -11.360001   29.700001       1.0000      1.0079
  460   1 O    8      15.130001    5.410000   18.630001       6.0000     15.9994
  461   2 H    1      15.130001    4.690000   17.860001       1.0000      1.0079
  462   2 H    1      -2.070000    6.250000   18.150002       1.0000      1.0079
  463   1 O    8     -11.230000  -23.390003    9.330000       6.0000     15.9994
  464   2 H    1     -10.270000  -23.480000    8.980000       1.0000      1.0079
  465   2 H    1     -11.180000  -23.180000   10.330000       1.0000      1.0079
  466   1 O    8      14.180001  -11.710000   21.950001       6.0000     15.9994
  467   2 H    1      13.470001  -12.390001   22.060001       1.0000      1.0079
  468   2 H    1      15.000001  -12.070000   22.280003       1.0000      1.0079
  469   1 O    8     -12.500000  -16.550001   26.040001       6.0000     15.9994
  470   2 H    1     -12.690001  -17.480000   26.300001       1.0000      1.0079
  471   2 H    1     -11.520000  -16.500000   25.680000       1.0000      1.0079
  472   1 O    8     -16.830002  -10.940001   19.290001       6.0000     15.9994
  473   2 H    1     -16.410000  -10.160000   18.880001       1.0000      1.0079
  474   2 H    1     -17.760002  -10.650001   19.330002       1.0000      1.0079
  475   1 O    8      20.290001    6.070001   15.480001       6.0000     15.9994
  476   2 H    1      20.570002    7.030000   15.470000       1.0000      1.0079
  477   2 H    1      21.160002    5.570001   15.780001       1.0000      1.0079
  478   1 O    8     -20.920000   32.050003   27.740002       6.0000     15.9994
  479   2 H    1     -20.540001   32.870003   27.410002       1.0000      1.0079
  480   2 H    1     -21.720001   31.780003   27.110003       1.0000      1.0079
  481   1 O    8      10.380001   17.300001   25.780001       6.0000     15.9994
  482   2 H    1      10.200001   16.950001   26.730001       1.0000      1.0079
  483   2 H    1       9.420000   17.390001   25.380001       1.0000      1.0079
  484   1 O    8       6.910000   41.690002   25.020000       6.0000     15.9994
  485   2 H    1       6.920000   40.690002   25.440002       1.0000      1.0079
  486   2 H    1       7.610001   42.270004   25.450001       1.0000      1.0079
  487   1 O    8       9.660000   44.070000   16.520000       6.0000     15.9994
  488   2 H    1       8.680000   44.260002   16.310001       1.0000      1.0079
  489   2 H    1       9.690001   43.820004   17.490002       1.0000      1.0079
  490   1 O    8      16.780001   26.230001   10.870000       6.0000     15.9994
  491   2 H    1      17.480000   25.900002   10.250001       1.0000      1.0079
  492   2 H    1      16.100002   26.540001   10.160000       1.0000      1.0079
  493   1 O    8      -1.180000   -8.680000   32.730003       6.0000     15.9994
  494   2 H    1      -9.540001    5.490000   33.620003       1.0000      1.0079
  495   2 H    1      -0.270000   -8.750001   32.380001       1.0000      1.0079
  496   1 O    8      18.990000   16.970001   23.420000       6.0000     15.9994
  497   2 H    1      10.730000   30.740002   22.880001       1.0000      1.0079
  498   2 H    1      10.640000   32.300003   22.740002       1.0000      1.0079
  499   1 O    8      17.880001    9.130000   25.520000       6.0000     15.9994
  500   2 H    1      18.370001    8.310000   25.230000       1.0000      1.0079
  501   2 H    1      17.780001    9.020000   26.500000       1.0000      1.0079
  502   1 O    8      -2.210000    4.780000   26.660002       6.0000     15.9994
  503   2 H    1      -1.860000    5.600000   27.030001       1.0000      1.0079
  504   2 H    1      -1.460000    4.400000   26.200001       1.0000      1.0079
  505   1 O    8      24.390001   -2.430000   21.760002       6.0000     15.9994
[...]
    899      3      Pt          0.01269976    -0.00221640    -0.00332089
    900      3      Pt          0.00606953     0.02136070     0.01307265
    901      3      Pt          0.01091026    -0.00683523     0.00393284
    902      3      Pt         -0.00124273    -0.00104935    -0.00298168
    903      3      Pt          0.00908656    -0.00341053    -0.01651018
    904      3      Pt          0.01662329     0.00978782     0.00994459
    905      3      Pt          0.00418891    -0.00541531    -0.00644498
    906      3      Pt         -0.02017265     0.00578779    -0.00528116
 SUM OF ATOMIC FORCES           0.01240249     0.01005822    -0.01343619     0.02086913

 STRESS| Analytical stress tensor [GPa]
 STRESS|                        x                   y                   z
 STRESS|      x       -3.01765486179E+00  -4.06607664209E-02   1.33029430956E-01
 STRESS|      y       -4.06607664209E-02  -2.47284972622E+00  -2.89856494926E-02
 STRESS|      z        1.33029430956E-01  -2.89856494926E-02  -7.45157435465E-01
 STRESS| 1/3 Trace                                            -2.07855400782E+00
 STRESS| Determinant                                          -5.51267655492E+00

 STRESS| Eigenvectors and eigenvalues of the analytical stress tensor [GPa]
 STRESS|                        1                   2                   3
 STRESS| Eigenvalues  -3.02814341895E+00  -2.47068676827E+00  -7.36831836246E-01
 STRESS|      x           0.995913015587     -0.068779799085      0.058537207154
 STRESS|      y           0.069941794088      0.997388006879     -0.018036329264
 STRESS|      z          -0.057143773269      0.022056812356      0.998122280187

 -------------------------------------------------------------------------------
 -                                                                             -
 -                                DBCSR STATISTICS                             -
 -                                                                             -
 -------------------------------------------------------------------------------
 COUNTER                                    TOTAL       BLAS       SMM       ACC
 flops     5 x     5 x   288          81867686400       0.0%    100.0%      0.0%
 flops     5 x     5 x   292          83004737600       0.0%    100.0%      0.0%
 flops    13 x     5 x   288          92456881920       0.0%    100.0%      0.0%
 flops     5 x    13 x   288          92505254400       0.0%    100.0%      0.0%
 flops    13 x     5 x   292          93741005280       0.0%    100.0%      0.0%
 flops     5 x    13 x   292          93790049600       0.0%    100.0%      0.0%
 flops    20 x    13 x   288          95231185920       0.0%    100.0%      0.0%
 flops    13 x    20 x   288          95265331200       0.0%    100.0%      0.0%
 flops    20 x    13 x   292          96553841280       0.0%    100.0%      0.0%
 flops    13 x    20 x   292          96588460800       0.0%    100.0%      0.0%
 flops    13 x    13 x   288          98661648384       0.0%    100.0%      0.0%
 flops    13 x    13 x   292         100031949056       0.0%    100.0%      0.0%
 flops     5 x    20 x   288         103911091200       0.0%    100.0%      0.0%
 flops    20 x     5 x   288         104007398400       0.0%    100.0%      0.0%
 flops     5 x    20 x   292         105354300800       0.0%    100.0%      0.0%
 flops    20 x     5 x   292         105451945600       0.0%    100.0%      0.0%
 flops    20 x    20 x   288         410373734400       0.0%    100.0%      0.0%
 flops    20 x    20 x   292         416073369600       0.0%    100.0%      0.0%
 flops     5 x     5 x   320         545784576000       0.0%    100.0%      0.0%
 flops    13 x     5 x   320         616379212800       0.0%    100.0%      0.0%
 flops     5 x    13 x   320         616701696000       0.0%    100.0%      0.0%
 flops    20 x    13 x   320         634874572800       0.0%    100.0%      0.0%
 flops    13 x    20 x   320         635102208000       0.0%    100.0%      0.0%
 flops    13 x    13 x   320         657744322560       0.0%    100.0%      0.0%
 flops     5 x    20 x   320         692740608000       0.0%    100.0%      0.0%
 flops    20 x     5 x   320         693382656000       0.0%    100.0%      0.0%
 flops    20 x    20 x   320        2735824896000       0.0%    100.0%      0.0%
 flops inhomo. stacks                           0       0.0%      0.0%      0.0%
 flops total                        10.193405E+12       0.0%    100.0%      0.0%
 flops max/rank                    166.652040E+09       0.0%    100.0%      0.0%
 matmuls inhomo. stacks                         0       0.0%      0.0%      0.0%
 matmuls total                          146414912       0.0%    100.0%      0.0%
 number of processed stacks                389120       0.0%    100.0%      0.0%
 average stack size                                     0.0     376.3       0.0
 marketing flops                    28.925407E+12
 -------------------------------------------------------------------------------
 # multiplications                             76
 max memory usage/rank               1.850597E+09
 # max total images/rank                        1
 # max 3D layers                                1
 # MPI messages exchanged                   68096
 MPI messages size (bytes):
  total size                       204.500730E+09
  min size                           2.762496E+06
  max size                           3.077120E+06
  average size                       3.003124E+06
 MPI breakdown and total messages size (bytes):
             size <=      128                   0                        0
       128 < size <=     8192                   0                        0
      8192 < size <=    32768                   0                        0
     32768 < size <=   131072                   0                        0
    131072 < size <=  4194304               68096             204500800000
   4194304 < size <= 16777216                   0                        0
  16777216 < size                               0                        0
 -------------------------------------------------------------------------------
 -                                                                             -
 -                      DBCSR MESSAGE PASSING PERFORMANCE                      -
 -                                                                             -
 -------------------------------------------------------------------------------
 ROUTINE             CALLS      AVE VOLUME [Bytes]
 MP_Bcast               28                     12.
 MP_Allreduce          606                     10.
 MP_Alltoall          2128                1951609.
 MP_ISend             2432                1329597.
 MP_IRecv             2432                1310413.
 -------------------------------------------------------------------------------

 -------------------------------------------------------------------------------
 -                                                                             -
 -                                DBM STATISTICS                               -
 -                                                                             -
 -------------------------------------------------------------------------------
    M  x    N  x    K                                          COUNT     PERCENT
 -------------------------------------------------------------------------------

 -------------------------------------------------------------------------------
 -                                                                             -
 -                                GRID STATISTICS                              -
 -                                                                             -
 -------------------------------------------------------------------------------
 LP    KERNEL             BACKEND                              COUNT     PERCENT
 3     collocate general  REF                               52916140      18.93%
 3     integrate general  REF                               52277859      18.70%
 2     collocate general  REF                               49511720      17.71%
 2     integrate general  REF                               48860250      17.48%
 4     collocate general  REF                               37217276      13.31%
 4     integrate general  REF                               36727575      13.14%
 6     integrate general  REF                                 696265       0.25%
 5     integrate general  REF                                 651470       0.23%
 7     integrate general  REF                                 489701       0.18%
 0     collocate general  REF                                 115968       0.04%
 0     integrate general  REF                                  57984       0.02%
 -------------------------------------------------------------------------------

 MEMORY| Estimated peak process memory [MiB]                                2100

 -------------------------------------------------------------------------------
 ----                             MULTIGRID INFO                            ----
 -------------------------------------------------------------------------------
 count for grid        1:         731182          cutoff [a.u.]          200.00
 count for grid        2:         807358          cutoff [a.u.]           66.67
 count for grid        3:         741498          cutoff [a.u.]           22.22
 count for grid        4:         830544          cutoff [a.u.]            7.41
 total gridlevel count  :        3110582

 -------------------------------------------------------------------------------
 -                                                                             -
 -                         MESSAGE PASSING PERFORMANCE                         -
 -                                                                             -
 -------------------------------------------------------------------------------

 ROUTINE             CALLS      AVE VOLUME [Bytes]
 MP_Group                4
 MP_Bcast              252                2342720.
 MP_Allreduce         1310                   1910.
 MP_Sync                79
 MP_Alltoall          1688               13101193.
 MP_SendRecv           252                  13722.
 MP_ISendRecv        19152                 113680.
 MP_Wait             42868
 MP_ISend            22176                 340212.
 MP_IRecv            22176                 340212.
 MP_Recv               308                2460160.
 MP_Write_All            3                1540656.
 -------------------------------------------------------------------------------


 -------------------------------------------------------------------------------
 -                                                                             -
 -                           R E F E R E N C E S                               -
 -                                                                             -
 -------------------------------------------------------------------------------
 
 CP2K version 2022.1, the CP2K developers group (2022).
 CP2K is freely available from https://www.cp2k.org/ .

 Kuehne,Thomas D.; Iannuzzi,Marcella; Del Ben,Mauro;
 Rybkin,Vladimir V.; Seewald,Patrick; Stein,Frederick; Laino,Teodoro;
 Khaliullin,Rustam Z.; Schuett,Ole; Schiffmann,Florian; Golze,Dorothea;
 Wilhelm,Jan; Chulkov,Sergey; Bani-Hashemian,Mohammad Hossein;
 Weber,Valery; Borstnik,Urban; Taillefumier,Mathieu;
 Jakobovits,Alice Shoshana; Lazzaro,Alfio; Pabst,Hans; Mueller,Tiziano;
 Schade,Robert; Guidon,Manuel; Andermatt,Samuel; Holmberg,Nico;
 Schenter,Gregory K.; Hehn,Anna; Bussy,Augustin; Belleflamme,Fabian;
 Tabacchi,Gloria; Gloess,Andreas; Lass,Michael; Bethune,Iain;
 Mundy,Christopher J.; Plessl,Christian; Watkins,Matt;
 VandeVondele,Joost; Krack,Matthias; Hutter,Juerg. 
 The Journal of Chemical Physics, 152 (19), (2020). 
 CP2K: An electronic structure and molecular dynamics software package -
 Quickstep: Efficient and accurate electronic structure calculations.
 https://doi.org/10.1063/5.0007045

 Goerigk, Lars; Hansen, Andreas; Bauer, Christoph; Ehrlich, Stephan;
 Najibi, Asim; Grimme, Stefan. , 19 (48), (2017). 
 A look at the density functional theory zoo with the advanced GMTKN55 database
 for general main group thermochemistry, kinetics and noncovalent interactions.
 https://doi.org/10.1039/C7CP04913G

 Schuett, Ole; Messmer, Peter; Hutter, Juerg; VandeVondele, Joost. 
 Electronic Structure Calculations on Graphics Processing Units, John
 Wiley & Sons, Ltd, 173-190 (2016). 
 GPU-Accelerated Sparse Matrix-Matrix Multiplication for
 Linear Scaling Density Functional Theory.
 https://doi.org/10.1002/9781118670712.ch8

 Heinecke, A; Henry, G; Hutchinson, M; Pabst, H. 
 Proceedings of Intl. Supercomputing Conference, 981-991 (2016). 
 LIBXSMM: Accelerating Small Matrix Multiplications
 by Runtime Code Generation.
 https://doi.org/10.1109/SC.2016.83

 Borstnik, U; VandeVondele, J; Weber, V; Hutter, J. 
 PARALLEL COMPUTING, 40 (5-6), 47-58 (2014). 
 Sparse matrix multiplication: The distributed block-compressed sparse
 row library.
 https://doi.org/10.1016/j.parco.2014.03.012

 Hutter, J; Iannuzzi, M; Schiffmann, F; VandeVondele, J. 
 WIREs Comput Mol Sci., 4 (1), 15-25 (2014). 
 CP2K: atomistic simulations of condensed matter systems.
 https://doi.org/10.1002/wcms.1159

 Marek, A; Blum, V; Johanni, R; Havu, V; Lang, B; Auckenthaler, T;
 Heinecke, A; Bungartz, H; Lederer, H. 
 Journal of Physics: Condensed Matter, 26 (21), (2014). 
 The ELPA library: scalable parallel eigenvalue solutions for
 electronic structure
 theory and computational science.
 https://doi.org/10.1088/0953-8984/26/21/213201

 Grimme, S; Ehrlich, S; Goerigk, L. 
 JOURNAL OF COMPUTATIONAL CHEMISTRY, 32, 1456 (2011). 
 Effect of the damping function in dispersion corrected density functional theory.
 https://doi.org/10.1002/jcc.21759

 Grimme, S; Antony, J; Ehrlich, S; Krieg, H. 
 JOURNAL OF CHEMICAL PHYSICS, 132 (15), 154104 (2010). 
 A consistent and accurate ab initio parametrization of density
 functional dispersion correction (DFT-D) for the 94 elements H-Pu.
 https://doi.org/10.1063/1.3382344

 VandeVondele, J; Hutter, J. 
 JOURNAL OF CHEMICAL PHYSICS, 127 (11), 114105 (2007). 
 Gaussian basis sets for accurate calculations on molecular systems in
 gas and condensed phases.
 https://doi.org/10.1063/1.2770708

 Krack, M. 
 THEORETICAL CHEMISTRY ACCOUNTS, 114 (1-3), 145-152 (2005). 
 Pseudopotentials for H to Kr optimized for gradient-corrected
 exchange-correlation functionals.
 https://doi.org/10.1007/s00214-005-0655-y

 VandeVondele, J; Krack, M; Mohamed, F; Parrinello, M; Chassaing, T;
 Hutter, J. COMPUTER PHYSICS COMMUNICATIONS, 167 (2), 103-128 (2005). 
 QUICKSTEP: Fast and accurate density functional calculations using a
 mixed Gaussian and plane waves approach.
 https://doi.org/10.1016/j.cpc.2004.12.014

 Frigo, M; Johnson, SG. 
 PROCEEDINGS OF THE IEEE, 93 (2), 216-231 (2005). 
 The design and implementation of FFTW3.
 https://doi.org/10.1109/JPROC.2004.840301

 Hartwigsen, C; Goedecker, S; Hutter, J. 
 PHYSICAL REVIEW B, 58 (7), 3641-3662 (1998). 
 Relativistic separable dual-space Gaussian pseudopotentials from H to Rn.
 https://doi.org/10.1103/PhysRevB.58.3641

 Lippert, G; Hutter, J; Parrinello, M. 
 MOLECULAR PHYSICS, 92 (3), 477-487 (1997). 
 A hybrid Gaussian and plane wave density functional scheme.
 https://doi.org/10.1080/002689797170220

 Perdew, JP; Burke, K; Ernzerhof, M. 
 PHYSICAL REVIEW LETTERS, 77 (18), 3865-3868 (1996). 
 Generalized gradient approximation made simple.
 https://doi.org/10.1103/PhysRevLett.77.3865

 Goedecker, S; Teter, M; Hutter, J. 
 PHYSICAL REVIEW B, 54 (3), 1703-1710 (1996). 
 Separable dual-space Gaussian pseudopotentials.
 https://doi.org/10.1103/PhysRevB.54.1703


 -------------------------------------------------------------------------------
 -                                                                             -
 -                                T I M I N G                                  -
 -                                                                             -
 -------------------------------------------------------------------------------
 SUBROUTINE                       CALLS  ASD         SELF TIME        TOTAL TIME
                                MAXIMUM       AVERAGE  MAXIMUM  AVERAGE  MAXIMUM
 CP2K                                 1  1.0    0.025    0.039  899.524  899.526
 qs_forces                            1  2.0    0.002    0.003  899.139  899.142
 qs_energies                          1  3.0    0.000    0.000  886.576  886.586
 scf_env_do_scf                       1  4.0    0.000    0.000  878.316  878.560
 scf_env_do_scf_inner_loop           75  5.0    0.004    0.013  878.316  878.559
 qs_scf_new_mos                      75  6.0    0.005    0.014  357.813  358.352
 eigensolver                         75  7.0    0.007    0.010  332.424  332.869
 rebuild_ks_matrix                   76  7.0    0.000    0.000  278.149  278.192
 qs_ks_build_kohn_sham_matrix        76  8.0    0.012    0.014  278.149  278.192
 qs_ks_update_qs_env                 75  6.0    0.001    0.001  270.177  270.220
 qs_rho_update_rho_low               76  6.0    0.001    0.001  237.217  237.244
 calculate_rho_elec                  76  7.0    0.178    0.208  237.216  237.243
 sum_up_and_integrate                76  9.0    0.318    0.401  233.590  233.653
 integrate_v_rspace                  76 10.0    0.003    0.003  233.272  233.367
 grid_collocate_task_list            76  8.0  208.580  214.099  208.580  214.099
 grid_integrate_task_list            76 11.0  203.527  209.019  203.527  209.019
 cp_fm_diag_elpa                     75  8.0    0.001    0.001  194.980  195.492
 cp_fm_diag_elpa_base                75  9.0  191.998  192.646  194.662  194.744
 cp_fm_triangular_multiply          225  8.0  134.690  136.620  134.690  136.620
 pw_transfer                       1520 10.9    0.108    0.141   41.913   42.865
 fft_wrap_pw1pw2                   1368 12.0    0.013    0.017   41.433   42.381
 rs_pw_transfer                     612 10.5    0.007    0.008   37.032   42.198
 fft_wrap_pw1pw2_200                912 13.3    3.736    4.076   39.933   40.855
 qs_vxc_create                       76  9.0    0.002    0.003   39.282   39.507
 xc_vxc_pw_create                    76 10.0    0.697    0.734   39.280   39.505
 fft3d_ps                          1368 14.0   15.085   17.080   30.545   31.762
 density_rs2pw                       76  8.0    0.005    0.006   26.280   31.363
 xc_pw_derive                       456 12.0    0.008    0.010   25.029   26.238
 xc_rho_set_and_dset_create          76 11.0    0.369    0.394   21.145   22.562
 potential_pw2rs                     76 11.0    0.028    0.034   22.049   22.124
 mp_waitany                       22176 12.4   15.928   21.394   15.928   21.394
 rs_pw_transfer_RS2PW_200            78 10.0    4.958    5.394   14.690   19.755
 calculate_dm_sparse                 75  7.0    0.023    0.031   18.439   19.087
 cp_dbcsr_plus_fm_fm_t_native        76  8.0    0.004    0.009   18.389   19.068
 -------------------------------------------------------------------------------

 The number of warnings for this run is : 1
 
 -------------------------------------------------------------------------------
  **** **** ******  **  PROGRAM ENDED AT                 2023-11-26 23:33:53.769
 ***** ** ***  *** **   PROGRAM RAN ON                                     cu054
 **    ****   ******    PROGRAM RAN BY                                     jxzhu
 ***** **    ** ** **   PROGRAM PROCESS ID                                 41816
  **** **  *******  **  PROGRAM STOPPED IN /public/home/jxzhu/tmp_calc/af2075565
                                           805657d94fa4669dad6f4b174b0a4fb/calc/
                                           002500.000/pbc
