 DBCSR| CPU Multiplication driver                                           XSMM
 DBCSR| Multrec recursion limit                                              512
 DBCSR| Multiplication stack size                                           1000
 DBCSR| Maximum elements for images                                    UNLIMITED
 DBCSR| Multiplicative factor virtual images                                   1
 DBCSR| Use multiplication densification                                       T
 DBCSR| Multiplication size stacks                                             3
 DBCSR| Use memory pool for CPU allocation                                     F
 DBCSR| Number of 3D layers                                               SINGLE
 DBCSR| Use MPI memory allocation                                              F
 DBCSR| Use RMA algorithm                                                      F
 DBCSR| Use Communication thread                                               T
 DBCSR| Communication thread load                                             87
 DBCSR| MPI: My node id                                                        0
 DBCSR| MPI: Number of nodes                                                 128
 DBCSR| OMP: Current number of threads                                         1
 DBCSR| OMP: Max number of threads                                             1
 DBCSR| Split modifier for TAS multiplication algorithm                  1.0E+00


  **** **** ******  **  PROGRAM STARTED AT               2023-12-02 09:11:08.776
 ***** ** ***  *** **   PROGRAM STARTED ON                                 cu001
 **    ****   ******    PROGRAM STARTED BY                                 jxzhu
 ***** **    ** ** **   PROGRAM PROCESS ID                                 35294
  **** **  *******  **  PROGRAM STARTED IN /public/home/jxzhu/tmp_calc/a69e440f6
                                           f49697ca8e55d32a39ef07cebff9f6e/calc/
                                           001100.000/search_hi.000002

 CP2K| version string:                                       CP2K version 2022.1
 CP2K| source code revision number:                                  git:2caeb6f
 CP2K| cp2kflags: omp libint fftw3 libxc elpa parallel mpi3 scalapack cosma xsmm
 CP2K|             plumed2 spglib mkl sirius libvori libbqb
 CP2K| is freely available from                            https://www.cp2k.org/
 CP2K| Program compiled at                           Mon Jul 3 17:37:06 CST 2023
 CP2K| Program compiled on                                                 mu003
 CP2K| Program compiled for                                                local
 CP2K| Data directory path                             /public/home/jxzhu/basis/
 CP2K| Input file name                                                 input.inp
 
 GLOBAL| Force Environment number                                              1
 GLOBAL| Basis set file name                                        BASIS_MOLOPT
 GLOBAL| Potential file name                                      GTH_POTENTIALS
 GLOBAL| MM Potential file name                                     MM_POTENTIAL
 GLOBAL| Coordinate file name                                          coord.xyz
 GLOBAL| Method name                                                        CP2K
 GLOBAL| Project name                                                       cp2k
 GLOBAL| Run type                                                   ENERGY_FORCE
 GLOBAL| FFT library                                                       FFTW3
 GLOBAL| Diagonalization library                                            ELPA
 GLOBAL| Minimum number of eigenvectors for ELPA usage                        16
 GLOBAL| Orthonormality check for eigenvectors                          DISABLED
 GLOBAL| Matrix multiplication library                                     COSMA
 GLOBAL| All-to-all communication in single precision                          F
 GLOBAL| FFTs using library dependent lengths                                  T
 GLOBAL| Grid backend                                                       AUTO
 GLOBAL| Global print level                                               MEDIUM
 GLOBAL| MPI I/O enabled                                                       T
 GLOBAL| Total number of message passing processes                           128
 GLOBAL| Number of threads for this process                                    1
 GLOBAL| This output is from process                                           0
 GLOBAL| Stack size for threads created by OpenMP (OMP_STACKSIZE)        default
 GLOBAL| CPU model name                 Intel(R) Xeon(R) Gold 6338 CPU @ 2.00GHz
 GLOBAL| CPUID                                                              1003

 MEMORY| system memory details [Kb]
 MEMORY|                        rank 0           min           max       average
 MEMORY| MemTotal            263619172     263619172     263619172     263619172
 MEMORY| MemFree             219480588     216151400     219482076     217816014
 MEMORY| Buffers                    20            20            36            28
 MEMORY| Cached                1300244        868896       1300244       1084571
 MEMORY| Slab                  1343356       1343356       1429040       1386198
 MEMORY| SReclaimable           243352        232220        243352        237786
 MEMORY| MemLikelyFree       221024204     217252556     221025688     219138400


 *** Fundamental physical constants (SI units) ***

 *** Literature: B. J. Mohr and B. N. Taylor,
 ***             CODATA recommended values of the fundamental physical
 ***             constants: 2006, Web Version 5.1
 ***             http://physics.nist.gov/constants

 Speed of light in vacuum [m/s]                             2.99792458000000E+08
 Magnetic constant or permeability of vacuum [N/A**2]       1.25663706143592E-06
 Electric constant or permittivity of vacuum [F/m]          8.85418781762039E-12
 Planck constant (h) [J*s]                                  6.62606896000000E-34
 Planck constant (h-bar) [J*s]                              1.05457162825177E-34
 Elementary charge [C]                                      1.60217648700000E-19
 Electron mass [kg]                                         9.10938215000000E-31
 Electron g factor [ ]                                     -2.00231930436220E+00
 Proton mass [kg]                                           1.67262163700000E-27
 Fine-structure constant                                    7.29735253760000E-03
 Rydberg constant [1/m]                                     1.09737315685270E+07
 Avogadro constant [1/mol]                                  6.02214179000000E+23
 Boltzmann constant [J/K]                                   1.38065040000000E-23
 Atomic mass unit [kg]                                      1.66053878200000E-27
 Bohr radius [m]                                            5.29177208590000E-11

 *** Conversion factors ***

 [u] -> [a.u.]                                              1.82288848426455E+03
 [Angstrom] -> [Bohr] = [a.u.]                              1.88972613288564E+00
 [a.u.] = [Bohr] -> [Angstrom]                              5.29177208590000E-01
 [a.u.] -> [s]                                              2.41888432650478E-17
 [a.u.] -> [fs]                                             2.41888432650478E-02
 [a.u.] -> [J]                                              4.35974393937059E-18
 [a.u.] -> [N]                                              8.23872205491840E-08
 [a.u.] -> [K]                                              3.15774647902944E+05
 [a.u.] -> [kJ/mol]                                         2.62549961709828E+03
 [a.u.] -> [kcal/mol]                                       6.27509468713739E+02
 [a.u.] -> [Pa]                                             2.94210107994716E+13
 [a.u.] -> [bar]                                            2.94210107994716E+08
 [a.u.] -> [atm]                                            2.90362800883016E+08
 [a.u.] -> [eV]                                             2.72113838565563E+01
 [a.u.] -> [Hz]                                             6.57968392072181E+15
 [a.u.] -> [1/cm] (wave numbers)                            2.19474631370540E+05
 [a.u./Bohr**2] -> [1/cm]                                   5.14048714338585E+03
 

 CELL_TOP| Volume [angstrom^3]:                                     17614.982639
 CELL_TOP| Vector a [angstrom    16.869     0.000     0.000   |a| =    16.869000
 CELL_TOP| Vector b [angstrom    -8.434    14.609     0.000   |b| =    16.869015
 CELL_TOP| Vector c [angstrom     0.000     0.000    71.478   |c| =    71.478000
 CELL_TOP| Angle (b,c), alpha [degree]:                                90.000000
 CELL_TOP| Angle (a,c), beta  [degree]:                                90.000000
 CELL_TOP| Angle (a,b), gamma [degree]:                               119.999970
 CELL_TOP| Numerically orthorhombic:                                          NO
 
 GENERATE|  Preliminary Number of Bonds generated:                             0
 GENERATE|  Achieved consistency in connectivity generation.

 CELL| Volume [angstrom^3]:                                         17614.982639
 CELL| Vector a [angstrom]:      16.869     0.000     0.000   |a| =    16.869000
 CELL| Vector b [angstrom]:      -8.434    14.609     0.000   |b| =    16.869015
 CELL| Vector c [angstrom]:       0.000     0.000    71.478   |c| =    71.478000
 CELL| Angle (b,c), alpha [degree]:                                    90.000000
 CELL| Angle (a,c), beta  [degree]:                                    90.000000
 CELL| Angle (a,b), gamma [degree]:                                   119.999970
 CELL| Numerically orthorhombic:                                              NO

 CELL_REF| Volume [angstrom^3]:                                     17614.982639
 CELL_REF| Vector a [angstrom    16.869     0.000     0.000   |a| =    16.869000
 CELL_REF| Vector b [angstrom    -8.434    14.609     0.000   |b| =    16.869015
 CELL_REF| Vector c [angstrom     0.000     0.000    71.478   |c| =    71.478000
 CELL_REF| Angle (b,c), alpha [degree]:                                90.000000
 CELL_REF| Angle (a,c), beta  [degree]:                                90.000000
 CELL_REF| Angle (a,b), gamma [degree]:                               119.999970
 CELL_REF| Numerically orthorhombic:                                          NO

 *******************************************************************************
 *******************************************************************************
 **                                                                           **
 **     #####                         ##              ##                      **
 **    ##   ##            ##          ##              ##                      **
 **   ##     ##                       ##            ######                    **
 **   ##     ##  ##   ##  ##   #####  ##  ##   ####   ##    #####    #####    **
 **   ##     ##  ##   ##  ##  ##      ## ##   ##      ##   ##   ##  ##   ##   **
 **   ##  ## ##  ##   ##  ##  ##      ####     ###    ##   ######   ######    **
 **    ##  ###   ##   ##  ##  ##      ## ##      ##   ##   ##       ##        **
 **     #######   #####   ##   #####  ##  ##  ####    ##    #####   ##        **
 **           ##                                                    ##        **
 **                                                                           **
 **                                                ... make the atoms dance   **
 **                                                                           **
 **            Copyright (C) by CP2K developers group (2000-2022)             **
 **                      J. Chem. Phys. 152, 194103 (2020)                    **
 **                                                                           **
 *******************************************************************************

 DFT| Spin restricted Kohn-Sham (RKS) calculation                            RKS
 DFT| Multiplicity                                                             1
 DFT| Number of spin states                                                    1
 DFT| Charge                                                                   0
 DFT| Self-interaction correction (SIC)                                       NO
 DFT| Cutoffs: density                                              1.000000E-10
 DFT|          gradient                                             1.000000E-10
 DFT|          tau                                                  1.000000E-10
 DFT|          cutoff_smoothing_range                               0.000000E+00
 DFT| XC density smoothing                                                  NONE
 DFT| XC derivatives                                                          PW

 FUNCTIONAL| PBE:
 FUNCTIONAL| J.P.Perdew, K.Burke, M.Ernzerhof, Phys. Rev. Letter, vol. 77, n 18,
 FUNCTIONAL|  pp. 3865-3868, (1996){spin unpolarized}                           

 vdW POTENTIAL|                                                   Pair Potential
 vdW POTENTIAL|          DFT-D3 (Version 3.1)
 vdW POTENTIAL|          Potential Form: S. Grimme et al, JCP 132: 154104 (2010)
 vdW POTENTIAL|          Zero Damping
 vdW POTENTIAL|          Cutoff Radius [Bohr]:                             20.00
 vdW POTENTIAL|          s6 Scaling Factor:                               1.0000
 vdW POTENTIAL|          sr6 Scaling Factor:                              1.2170
 vdW POTENTIAL|          s8 Scaling Factor:                               0.7220
 vdW POTENTIAL|          Cutoff for CN calculation:                   0.1000E-05

 QS| Method:                                                                 GPW
 QS| Density plane wave grid type                        NON-SPHERICAL FULLSPACE
 QS| Number of grid levels:                                                    4
 QS| Density cutoff [a.u.]:                                                200.0
 QS| Multi grid cutoff [a.u.]: 1) grid level                               200.0
 QS|                           2) grid level                                66.7
 QS|                           3) grid level                                22.2
 QS|                           4) grid level                                 7.4
 QS| Grid level progression factor:                                          3.0
 QS| Relative density cutoff [a.u.]:                                        20.0
 QS| Interaction thresholds: eps_pgf_orb:                                3.2E-07
 QS|                         eps_filter_matrix:                          0.0E+00
 QS|                         eps_core_charge:                            1.0E-15
 QS|                         eps_rho_gspace:                             1.0E-13
 QS|                         eps_rho_rspace:                             1.0E-13
 QS|                         eps_gvg_rspace:                             3.2E-07
 QS|                         eps_ppl:                                    1.0E-02
 QS|                         eps_ppnl:                                   3.2E-09


 ATOMIC KIND INFORMATION

  1. Atomic kind: O                                     Number of atoms:     101

     Orbital Basis Set                                        DZVP-MOLOPT-SR-GTH

       Number of orbital shell sets:                                           1
       Number of orbital shells:                                               5
       Number of primitive Cartesian functions:                                5
       Number of Cartesian basis functions:                                   14
       Number of spherical basis functions:                                   13
       Norm type:                                                              2

       Normalised Cartesian orbitals:

                        Set   Shell   Orbital            Exponent    Coefficient

                          1       1    2s               10.389228       0.396646
                                                         3.849621       0.208811
                                                         1.388401      -0.301641
                                                         0.496955      -0.274061
                                                         0.162492      -0.033677

                          1       2    3s               10.389228       0.303673
                                                         3.849621       0.240943
                                                         1.388401      -0.313066
                                                         0.496955      -0.043055
                                                         0.162492       0.213991

                          1       3    3px              10.389228      -1.530415
                                                         3.849621      -1.371928
                                                         1.388401      -0.761951
                                                         0.496955      -0.253695
                                                         0.162492      -0.035541
                          1       3    3py              10.389228      -1.530415
                                                         3.849621      -1.371928
                                                         1.388401      -0.761951
                                                         0.496955      -0.253695
                                                         0.162492      -0.035541
                          1       3    3pz              10.389228      -1.530415
                                                         3.849621      -1.371928
                                                         1.388401      -0.761951
                                                         0.496955      -0.253695
                                                         0.162492      -0.035541

                          1       4    4px              10.389228      -0.565392
                                                         3.849621      -0.038231
                                                         1.388401      -0.382373
                                                         0.496955       0.179070
                                                         0.162492       0.122714
                          1       4    4py              10.389228      -0.565392
                                                         3.849621      -0.038231
                                                         1.388401      -0.382373
                                                         0.496955       0.179070
                                                         0.162492       0.122714
                          1       4    4pz              10.389228      -0.565392
                                                         3.849621      -0.038231
                                                         1.388401      -0.382373
                                                         0.496955       0.179070
                                                         0.162492       0.122714

                          1       5    4dx2             10.389228       1.867377
                                                         3.849621       0.670994
                                                         1.388401       1.353441
                                                         0.496955       0.273538
                                                         0.162492       0.006620
                          1       5    4dxy             10.389228       3.234392
                                                         3.849621       1.162195
                                                         1.388401       2.344229
                                                         0.496955       0.473781
                                                         0.162492       0.011466
                          1       5    4dxz             10.389228       3.234392
                                                         3.849621       1.162195
                                                         1.388401       2.344229
                                                         0.496955       0.473781
                                                         0.162492       0.011466
                          1       5    4dy2             10.389228       1.867377
                                                         3.849621       0.670994
                                                         1.388401       1.353441
                                                         0.496955       0.273538
                                                         0.162492       0.006620
                          1       5    4dyz             10.389228       3.234392
                                                         3.849621       1.162195
                                                         1.388401       2.344229
                                                         0.496955       0.473781
                                                         0.162492       0.011466
                          1       5    4dz2             10.389228       1.867377
                                                         3.849621       0.670994
                                                         1.388401       1.353441
                                                         0.496955       0.273538
                                                         0.162492       0.006620

       Atomic covalent radius [Angstrom]:                                  0.730

       Atomic van der Waals radius [Angstrom]:                             1.520

     GTH Potential information for                                    GTH-PBE-q6

       Description:                       Goedecker-Teter-Hutter pseudopotential
                                           Goedecker et al., PRB 54, 1703 (1996)
                                          Hartwigsen et al., PRB 58, 3641 (1998)
                                                      Krack, TCA 114, 145 (2005)

       Gaussian exponent of the core charge distribution:               8.360253
       Electronic configuration (s p d ...):                               2   4

       Parameters of the local part of the GTH pseudopotential:

                          rloc        C1          C2          C3          C4
                        0.244554  -16.667215    2.487311

       Parameters of the non-local part of the GTH pseudopotential:

                   l      r(l)      h(i,j,l)

                   0    0.220956   18.337458
                   1    0.211332

  2. Atomic kind: H                                     Number of atoms:     202

     Orbital Basis Set                                        DZVP-MOLOPT-SR-GTH

       Number of orbital shell sets:                                           1
       Number of orbital shells:                                               3
       Number of primitive Cartesian functions:                                5
       Number of Cartesian basis functions:                                    5
       Number of spherical basis functions:                                    5
       Norm type:                                                              2

       Normalised Cartesian orbitals:

                        Set   Shell   Orbital            Exponent    Coefficient

                          1       1    2s               10.068468      -0.133023
                                                         2.680223      -0.177618
                                                         0.791502      -0.258419
                                                         0.239116      -0.107525
                                                         0.082193      -0.014019

                          1       2    3s               10.068468       0.344673
                                                         2.680223       1.819821
                                                         0.791502      -0.999069
                                                         0.239116       0.017430
                                                         0.082193       0.082660

                          1       3    3px              10.068468       0.155326
                                                         2.680223       0.367157
                                                         0.791502       0.311480
                                                         0.239116       0.080105
                                                         0.082193       0.033440
                          1       3    3py              10.068468       0.155326
                                                         2.680223       0.367157
                                                         0.791502       0.311480
                                                         0.239116       0.080105
                                                         0.082193       0.033440
                          1       3    3pz              10.068468       0.155326
                                                         2.680223       0.367157
                                                         0.791502       0.311480
                                                         0.239116       0.080105
                                                         0.082193       0.033440

       Atomic covalent radius [Angstrom]:                                  0.320

       Atomic van der Waals radius [Angstrom]:                             1.090

     GTH Potential information for                                    GTH-PBE-q1

       Description:                       Goedecker-Teter-Hutter pseudopotential
                                           Goedecker et al., PRB 54, 1703 (1996)
                                          Hartwigsen et al., PRB 58, 3641 (1998)
                                                      Krack, TCA 114, 145 (2005)

       Gaussian exponent of the core charge distribution:              12.500000
       Electronic configuration (s p d ...):                                   1

       Parameters of the local part of the GTH pseudopotential:

                          rloc        C1          C2          C3          C4
                        0.200000   -4.178900    0.724463

  3. Atomic kind: Pt                                    Number of atoms:     216

     Orbital Basis Set                      DZVP-A5-Q10-323-MOL-T1-DERIVED_SET-1

       Number of orbital shell sets:                                           1
       Number of orbital shells:                                               6
       Number of primitive Cartesian functions:                                5
       Number of Cartesian basis functions:                                   23
       Number of spherical basis functions:                                   20
       Norm type:                                                              2

       Normalised Cartesian orbitals:

                        Set   Shell   Orbital            Exponent    Coefficient

                          1       1    2s                2.521825       0.177473
                                                         1.453920      -0.063399
                                                         0.614053      -0.407089
                                                         0.232656       0.262254
                                                         0.074788       0.047371

                          1       2    3s                2.521825      -0.049056
                                                         1.453920       0.044904
                                                         0.614053      -0.009756
                                                         0.232656      -0.144709
                                                         0.074788       0.144085

                          1       3    3px               2.521825      -0.317572
                                                         1.453920       0.534826
                                                         0.614053      -0.489458
                                                         0.232656       0.245631
                                                         0.074788       0.018221
                          1       3    3py               2.521825      -0.317572
                                                         1.453920       0.534826
                                                         0.614053      -0.489458
                                                         0.232656       0.245631
                                                         0.074788       0.018221
                          1       3    3pz               2.521825      -0.317572
                                                         1.453920       0.534826
                                                         0.614053      -0.489458
                                                         0.232656       0.245631
                                                         0.074788       0.018221

                          1       4    4dx2              2.521825       3.008522
                                                         1.453920      -1.224251
                                                         0.614053       0.225691
                                                         0.232656       0.125144
                                                         0.074788      -0.015348
                          1       4    4dxy              2.521825       5.210912
                                                         1.453920      -2.120465
                                                         0.614053       0.390909
                                                         0.232656       0.216756
                                                         0.074788      -0.026584
                          1       4    4dxz              2.521825       5.210912
                                                         1.453920      -2.120465
                                                         0.614053       0.390909
                                                         0.232656       0.216756
                                                         0.074788      -0.026584
                          1       4    4dy2              2.521825       3.008522
                                                         1.453920      -1.224251
                                                         0.614053       0.225691
                                                         0.232656       0.125144
                                                         0.074788      -0.015348
                          1       4    4dyz              2.521825       5.210912
                                                         1.453920      -2.120465
                                                         0.614053       0.390909
                                                         0.232656       0.216756
                                                         0.074788      -0.026584
                          1       4    4dz2              2.521825       3.008522
                                                         1.453920      -1.224251
                                                         0.614053       0.225691
                                                         0.232656       0.125144
                                                         0.074788      -0.015348

                          1       5    5dx2              2.521825       0.698026
                                                         1.453920      -1.511486
                                                         0.614053      -0.335394
                                                         0.232656      -0.025564
                                                         0.074788      -0.002699
                          1       5    5dxy              2.521825       1.209017
                                                         1.453920      -2.617970
                                                         0.614053      -0.580920
                                                         0.232656      -0.044277
                                                         0.074788      -0.004674
                          1       5    5dxz              2.521825       1.209017
                                                         1.453920      -2.617970
                                                         0.614053      -0.580920
                                                         0.232656      -0.044277
                                                         0.074788      -0.004674
                          1       5    5dy2              2.521825       0.698026
                                                         1.453920      -1.511486
                                                         0.614053      -0.335394
                                                         0.232656      -0.025564
                                                         0.074788      -0.002699
                          1       5    5dyz              2.521825       1.209017
                                                         1.453920      -2.617970
                                                         0.614053      -0.580920
                                                         0.232656      -0.044277
                                                         0.074788      -0.004674
                          1       5    5dz2              2.521825       0.698026
                                                         1.453920      -1.511486
                                                         0.614053      -0.335394
                                                         0.232656      -0.025564
                                                         0.074788      -0.002699

                          1       6    6dx2              2.521825       0.831079
                                                         1.453920      -0.709226
                                                         0.614053      -0.137351
                                                         0.232656       0.068642
                                                         0.074788       0.011745
                          1       6    6dxy              2.521825       1.439472
                                                         1.453920      -1.228415
                                                         0.614053      -0.237899
                                                         0.232656       0.118891
                                                         0.074788       0.020343
                          1       6    6dxz              2.521825       1.439472
                                                         1.453920      -1.228415
                                                         0.614053      -0.237899
                                                         0.232656       0.118891
                                                         0.074788       0.020343
                          1       6    6dy2              2.521825       0.831079
                                                         1.453920      -0.709226
                                                         0.614053      -0.137351
                                                         0.232656       0.068642
                                                         0.074788       0.011745
                          1       6    6dyz              2.521825       1.439472
                                                         1.453920      -1.228415
                                                         0.614053      -0.237899
                                                         0.232656       0.118891
                                                         0.074788       0.020343
                          1       6    6dz2              2.521825       0.831079
                                                         1.453920      -0.709226
                                                         0.614053      -0.137351
                                                         0.232656       0.068642
                                                         0.074788       0.011745

       Atomic covalent radius [Angstrom]:                                  1.300

       Atomic van der Waals radius [Angstrom]:                             1.750

     GTH Potential information for                                   GTH-PBE-q10

       Description:                       Goedecker-Teter-Hutter pseudopotential
                                           Goedecker et al., PRB 54, 1703 (1996)
                                          Hartwigsen et al., PRB 58, 3641 (1998)
                                                      Krack, TCA 114, 145 (2005)

       Gaussian exponent of the core charge distribution:               1.317676
       Electronic configuration (s p d ...):                           1   0   9

       Parameters of the local part of the GTH pseudopotential:

                          rloc        C1          C2          C3          C4
                        0.616000   11.313635

       Parameters of the non-local part of the GTH pseudopotential:

                   l      r(l)      h(i,j,l)

                   0    0.550904    4.733491   -1.784594
                                   -1.784594    2.303901
                   1    0.674138    2.534798   -1.778066
                                   -1.778066    2.103836
                   2    0.457392   -7.264011    2.558665
                                    2.558665   -2.901253


 MOLECULE KIND INFORMATION


 All atoms are their own molecule, skipping detailed information


 TOTAL NUMBERS AND MAXIMUM NUMBERS

  Total number of            - Atomic kinds:                                   3
                             - Atoms:                                        519
                             - Shell sets:                                   519
                             - Shells:                                      2407
                             - Primitive Cartesian functions:               2595
                             - Cartesian basis functions:                   7392
                             - Spherical basis functions:                   6643

  Maximum angular momentum of- Orbital basis functions:                        2
                             - Local part of the GTH pseudopotential:          2
                             - Non-local part of the GTH pseudopotential:      4


 MODULE QUICKSTEP:  ATOMIC COORDINATES IN angstrom

 Atom  Kind  Element       X           Y           Z          Z(eff)       Mass
    1   1 O    8       8.050001   -4.830000   37.447998       6.0000     15.9994
    2   2 H    1       8.300000   -4.430000   38.317999       1.0000      1.0079
    3   2 H    1       8.460000   -5.720000   37.407999       1.0000      1.0079
    4   1 O    8      -9.940001  -15.470000   39.458000       6.0000     15.9994
    5   2 H    1     -10.290001  -15.970001   38.748000       1.0000      1.0079
    6   2 H    1     -10.480001  -15.630001   40.258000       1.0000      1.0079
    7   1 O    8       8.230000   12.120000   36.097998       6.0000     15.9994
    8   2 H    1       8.020000   11.610001   35.218001       1.0000      1.0079
    9   2 H    1       7.240000   12.360001   36.188000       1.0000      1.0079
   10   1 O    8      -2.630000   -5.870000   36.717999       6.0000     15.9994
   11   2 H    1      -2.770000   -5.210000   36.097998       1.0000      1.0079
   12   2 H    1      -3.560000   -6.040000   37.198000       1.0000      1.0079
   13   1 O    8      -8.780001  -21.820002   36.427998       6.0000     15.9994
   14   2 H    1      -9.680000  -21.550003   36.717999       1.0000      1.0079
   15   2 H    1      -8.720000  -21.690002   35.498000       1.0000      1.0079
   16   1 O    8      13.200001   -4.310000   32.247998       6.0000     15.9994
   17   2 H    1      12.870001   -5.290000   32.057999       1.0000      1.0079
   18   2 H    1      13.480000   -3.880000   31.397999       1.0000      1.0079
   19   1 O    8      -8.330001    4.000000   32.228001       6.0000     15.9994
   20   2 H    1      -8.110001    4.970000   32.177998       1.0000      1.0079
   21   2 H    1      -8.130000    3.670000   33.118000       1.0000      1.0079
   22   1 O    8      -3.670000  -10.550001   33.487999       6.0000     15.9994
   23   2 H    1      -3.010000  -11.270000   33.618000       1.0000      1.0079
   24   2 H    1      -4.340000  -10.490000   34.168000       1.0000      1.0079
   25   1 O    8     -19.720001   29.220001   32.718001       6.0000     15.9994
   26   2 H    1     -18.750002   29.139999   32.718001       1.0000      1.0079
   27   2 H    1      -3.060000   29.710003   33.608000       1.0000      1.0079
   28   1 O    8      -9.150001   20.270002   29.307999       6.0000     15.9994
   29   2 H    1      -8.240001   20.540001   29.587998       1.0000      1.0079
   30   2 H    1      -9.800000   20.880001   29.657997       1.0000      1.0079
   31   1 O    8       2.930000    5.120000   35.227999       6.0000     15.9994
   32   2 H    1       2.570000    4.940000   36.118000       1.0000      1.0079
   33   2 H    1       2.760000    6.080000   35.037999       1.0000      1.0079
   34   1 O    8      -4.740000    8.470000   30.518002       6.0000     15.9994
   35   2 H    1      -5.650000    8.860001   30.357998       1.0000      1.0079
   36   2 H    1      -4.290000    8.910000   31.278000       1.0000      1.0079
   37   1 O    8      -1.160000   -3.880000   38.727999       6.0000     15.9994
   38   2 H    1      -0.420000   -3.580000   38.217999       1.0000      1.0079
   39   2 H    1      -1.580000   -4.440001   38.048001       1.0000      1.0079
   40   1 O    8      19.270000   14.870001   32.977997       6.0000     15.9994
   41   2 H    1      20.020000   14.340000   32.547999       1.0000      1.0079
   42   2 H    1       2.560000   14.450001   33.848000       1.0000      1.0079
   43   1 O    8      -8.950001    8.030001   33.817999       6.0000     15.9994
   44   2 H    1      -9.760000    7.590001   33.378001       1.0000      1.0079
   45   2 H    1      -9.220000    9.010000   33.678000       1.0000      1.0079
   46   1 O    8     -17.410000   15.100001   35.407997       6.0000     15.9994
   47   2 H    1     -17.030001   15.840001   34.897999       1.0000      1.0079
   48   2 H    1     -18.110001   14.650001   34.917998       1.0000      1.0079
   49   1 O    8      19.670002   11.920000   39.958000       6.0000     15.9994
   50   2 H    1      19.610001   11.640000   41.048001       1.0000      1.0079
   51   2 H    1      19.530001   12.880001   40.018000       1.0000      1.0079
   52   1 O    8     -11.760000   16.130001   34.977999       6.0000     15.9994
   53   2 H    1     -19.740002   31.630001   34.677998       1.0000      1.0079
   54   2 H    1     -12.640000   16.620001   35.037999       1.0000      1.0079
   55   1 O    8      -1.030000    0.740000   29.168000       6.0000     15.9994
   56   2 H    1      -1.890000    0.410000   29.457997       1.0000      1.0079
   57   2 H    1      -1.050000    1.740000   29.368000       1.0000      1.0079
   58   1 O    8     -20.559999   -0.190000   37.237999       6.0000     15.9994
   59   2 H    1     -21.290001   -0.090000   37.907997       1.0000      1.0079
   60   2 H    1     -20.500002    0.680000   36.778000       1.0000      1.0079
   61   1 O    8     -24.209999   17.830002   34.348000       6.0000     15.9994
   62   2 H    1     -23.570002   18.600002   34.407999       1.0000      1.0079
   63   2 H    1     -24.200001   17.550001   33.297999       1.0000      1.0079
   64   1 O    8      39.010002   -7.370000   34.587998       6.0000     15.9994
   65   2 H    1      38.570000   -6.610000   34.198000       1.0000      1.0079
   66   2 H    1      38.750004   -7.190001   35.567999       1.0000      1.0079
   67   1 O    8      -2.290000   13.440001   34.377999       6.0000     15.9994
   68   2 H    1      -2.820000   13.140000   35.168000       1.0000      1.0079
   69   2 H    1      -3.040000   13.670001   33.827999       1.0000      1.0079
   70   1 O    8      13.680000   -3.020000   29.977997       6.0000     15.9994
   71   2 H    1      14.640001   -2.860000   29.848000       1.0000      1.0079
   72   2 H    1      13.370000   -2.980000   29.027996       1.0000      1.0079
   73   1 O    8       9.540001   13.830000   30.418000       6.0000     15.9994
   74   2 H    1      10.270000   13.590001   29.807999       1.0000      1.0079
   75   2 H    1       8.890000   14.360001   29.837998       1.0000      1.0079
   76   1 O    8       4.920000   14.490002   30.117997       6.0000     15.9994
   77   2 H    1       5.350000   14.640001   31.057999       1.0000      1.0079
   78   2 H    1       4.300000   15.230001   29.918000       1.0000      1.0079
   79   1 O    8     -29.960001    7.970000   32.317997       6.0000     15.9994
   80   2 H    1     -29.250002    7.330000   32.347998       1.0000      1.0079
   81   2 H    1     -30.220001    8.120001   33.287999       1.0000      1.0079
   82   1 O    8       3.500000  -18.150002   37.548001       6.0000     15.9994
   83   2 H    1       3.410000  -17.770000   38.527998       1.0000      1.0079
   84   2 H    1       4.370000  -17.720001   37.347998       1.0000      1.0079
   85   1 O    8       6.390000  -11.460000   37.937998       6.0000     15.9994
   86   2 H    1       6.240000  -11.530000   36.987999       1.0000      1.0079
   87   2 H    1       7.060000  -12.160001   38.108000       1.0000      1.0079
   88   1 O    8     -16.580002    0.050000   35.507998       6.0000     15.9994
   89   2 H    1     -16.630001   -0.970000   35.748000       1.0000      1.0079
   90   2 H    1     -15.630001    0.230000   35.598000       1.0000      1.0079
   91   1 O    8      28.110001    3.580000   38.048001       6.0000     15.9994
   92   2 H    1      28.190002    4.600000   38.338002       1.0000      1.0079
   93   2 H    1      28.710001    3.100000   38.638001       1.0000      1.0079
   94   1 O    8       3.080000    8.270000   29.278000       6.0000     15.9994
   95   2 H    1       2.730000    9.150001   29.457997       1.0000      1.0079
   96   2 H    1       2.400000    7.640000   29.677998       1.0000      1.0079
   97   1 O    8       4.660000   -4.080000   29.177998       6.0000     15.9994
   98   2 H    1      -2.880000   10.540000   29.528000       1.0000      1.0079
   99   2 H    1       4.280000   -4.910000   29.568001       1.0000      1.0079
  100   1 O    8      10.960001   -6.750000   34.617998       6.0000     15.9994
  101   2 H    1      10.120001   -6.280000   34.357998       1.0000      1.0079
  102   2 H    1      11.050000   -6.600000   35.577999       1.0000      1.0079
  103   1 O    8      18.600002    6.460000   30.497998       6.0000     15.9994
  104   2 H    1      18.220001    6.580000   31.407999       1.0000      1.0079
  105   2 H    1      19.490002    5.970000   30.618000       1.0000      1.0079
  106   1 O    8      16.970001    7.660000   32.508000       6.0000     15.9994
  107   2 H    1      17.320002    8.580000   32.547999       1.0000      1.0079
  108   2 H    1      16.690001    7.310000   33.437998       1.0000      1.0079
  109   1 O    8       1.520000   -8.100000   32.827999       6.0000     15.9994
  110   2 H    1       1.830000   -7.540000   32.117998       1.0000      1.0079
  111   2 H    1       0.860000   -7.500000   33.327999       1.0000      1.0079
  112   1 O    8      -1.550000   15.980000   37.727999       6.0000     15.9994
  113   2 H    1      -1.000000   15.730000   36.918000       1.0000      1.0079
  114   2 H    1      -0.930000   16.600000   38.237999       1.0000      1.0079
  115   1 O    8      31.330002   -9.200000   30.017998       6.0000     15.9994
  116   2 H    1      31.980001   -9.970000   30.067997       1.0000      1.0079
  117   2 H    1      31.100002   -9.160001   29.068001       1.0000      1.0079
  118   1 O    8     -29.540003   30.950001   37.688000       6.0000     15.9994
  119   2 H    1     -11.660000   31.020002   37.758000       1.0000      1.0079
  120   2 H    1     -29.610003   30.950001   36.728001       1.0000      1.0079
  121   1 O    8      -1.800000    5.470000   39.178000       6.0000     15.9994
  122   2 H    1      -1.970000    4.680000   38.627999       1.0000      1.0079
  123   2 H    1      -1.360000    6.070001   38.438000       1.0000      1.0079
  124   1 O    8      -1.550000   17.090000   29.887997       6.0000     15.9994
  125   2 H    1      -1.900000   17.200001   28.947998       1.0000      1.0079
  126   2 H    1      -0.600000   17.200001   29.778000       1.0000      1.0079
  127   1 O    8      -1.320000   25.520000   33.708000       6.0000     15.9994
  128   2 H    1      -1.120000   26.010000   32.848000       1.0000      1.0079
  129   2 H    1      -2.280000   25.180000   33.448000       1.0000      1.0079
  130   1 O    8     -15.050001   25.010002   39.108000       6.0000     15.9994
  131   2 H    1     -14.040001   24.950001   39.187998       1.0000      1.0079
  132   2 H    1     -15.360001   24.610003   39.948000       1.0000      1.0079
  133   1 O    8      16.120001    6.400001   34.688000       6.0000     15.9994
  134   2 H    1      15.430001    7.140000   34.567999       1.0000      1.0079
  135   2 H    1      15.740002    5.500000   34.528000       1.0000      1.0079
  136   1 O    8       7.510000   17.900002   29.907997       6.0000     15.9994
  137   2 H    1       8.220000   17.870001   30.577998       1.0000      1.0079
  138   2 H    1       7.690001   18.830002   29.548001       1.0000      1.0079
  139   1 O    8     -24.920002   32.160000   34.798001       6.0000     15.9994
  140   2 H    1     -25.310001   32.740002   35.448000       1.0000      1.0079
  141   2 H    1     -23.950003   32.250000   34.897999       1.0000      1.0079
  142   1 O    8       1.090000   17.720001   30.037999       6.0000     15.9994
  143   2 H    1       9.360001    3.470000   30.967999       1.0000      1.0079
  144   2 H    1     -14.840001   17.310001   30.188000       1.0000      1.0079
  145   1 O    8       4.380000   -8.870000   30.077999       6.0000     15.9994
  146   2 H    1       4.660000   -8.790001   29.138001       1.0000      1.0079
  147   2 H    1       4.210001   -7.920001   30.267998       1.0000      1.0079
  148   1 O    8      10.510000   -0.240000   39.628001       6.0000     15.9994
  149   2 H    1      10.160000   -0.140000   38.708000       1.0000      1.0079
  150   2 H    1       9.890000    0.100000   40.307999       1.0000      1.0079
  151   1 O    8      -3.730000    9.530001   32.877999       6.0000     15.9994
  152   2 H    1      -2.840000    9.920000   33.018000       1.0000      1.0079
  153   2 H    1      -4.250000    9.980000   33.608000       1.0000      1.0079
  154   1 O    8     -17.570002   -2.950000   30.837998       6.0000     15.9994
  155   2 H    1     -16.910002   -2.210000   30.637999       1.0000      1.0079
  156   2 H    1     -17.020000   -3.770000   30.678000       1.0000      1.0079
  157   1 O    8      -3.340000   10.180000   37.697998       6.0000     15.9994
  158   2 H    1      -2.380000   10.110001   37.718001       1.0000      1.0079
  159   2 H    1      -3.650000   10.400001   38.597998       1.0000      1.0079
  160   1 O    8       1.840000   -2.350000   33.018000       6.0000     15.9994
  161   2 H    1       1.900000   -3.040000   33.737999       1.0000      1.0079
  162   2 H    1       2.170000   -2.750000   32.207999       1.0000      1.0079
  163   1 O    8      -6.860001    0.600000   37.077999       6.0000     15.9994
  164   2 H    1      -6.530001    1.270000   36.538000       1.0000      1.0079
  165   2 H    1      -7.640000    0.200000   36.587998       1.0000      1.0079
  166   1 O    8      12.050000   19.230001   30.767998       6.0000     15.9994
  167   2 H    1      21.440001    4.830000   30.467999       1.0000      1.0079
  168   2 H    1      12.300000   19.080002   31.787999       1.0000      1.0079
  169   1 O    8       9.940001   19.420002   37.807999       6.0000     15.9994
  170   2 H    1      10.610001   19.350000   38.588000       1.0000      1.0079
  171   2 H    1       9.440001   18.630001   38.028000       1.0000      1.0079
  172   1 O    8       8.830000   -4.690000   34.798001       6.0000     15.9994
  173   2 H    1       9.310000   -3.820000   34.938000       1.0000      1.0079
  174   2 H    1       8.430000   -4.700000   35.657999       1.0000      1.0079
  175   1 O    8      -3.850000   14.940001   30.368000       6.0000     15.9994
  176   2 H    1      -2.840000   15.090000   30.147999       1.0000      1.0079
  177   2 H    1       4.070000    1.200000   30.057999       1.0000      1.0079
  178   1 O    8       1.650000   23.750000   36.778000       6.0000     15.9994
  179   2 H    1       0.970000   23.040001   36.587998       1.0000      1.0079
  180   2 H    1      10.060000    9.500000   37.727999       1.0000      1.0079
  181   1 O    8      13.110001   12.260000   36.237999       6.0000     15.9994
  182   2 H    1      13.280001   11.350001   36.798001       1.0000      1.0079
  183   2 H    1      12.690001   12.820001   36.947998       1.0000      1.0079
  184   1 O    8       0.830000    2.280000   31.947998       6.0000     15.9994
  185   2 H    1       0.530000    1.430000   32.307999       1.0000      1.0079
  186   2 H    1       1.560000    2.070000   31.297999       1.0000      1.0079
  187   1 O    8       8.270000   14.410001   32.967999       6.0000     15.9994
  188   2 H    1       8.870000   13.650000   32.797999       1.0000      1.0079
  189   2 H    1       8.370000   14.560001   34.008000       1.0000      1.0079
  190   1 O    8     -11.300000  -16.900002   36.197998       6.0000     15.9994
  191   2 H    1     -11.680001  -17.030001   35.318001       1.0000      1.0079
  192   2 H    1     -11.500001  -16.000000   36.487999       1.0000      1.0079
  193   1 O    8      -6.650000   -2.550000   35.618000       6.0000     15.9994
  194   2 H    1      -6.110000   -2.140000   34.897999       1.0000      1.0079
  195   2 H    1      -5.920000   -2.850000   36.268000       1.0000      1.0079
  196   1 O    8       3.690000   -0.350000   32.918000       6.0000     15.9994
  197   2 H    1       3.790000   -0.070000   31.977999       1.0000      1.0079
  198   2 H    1       3.020000   -1.030000   33.057999       1.0000      1.0079
  199   1 O    8       5.800000    8.420001   29.377999       6.0000     15.9994
  200   2 H    1       4.780000    8.400001   29.537999       1.0000      1.0079
  201   2 H    1       6.100000    9.360001   29.298001       1.0000      1.0079
  202   1 O    8      -1.130000   10.950001   30.298001       6.0000     15.9994
  203   2 H    1      -9.500000   26.530001   30.028000       1.0000      1.0079
  204   2 H    1      -1.160000   11.110001   31.237999       1.0000      1.0079
  205   1 O    8      15.340000    3.850000   34.397999       6.0000     15.9994
  206   2 H    1       6.740000   18.500002   33.418000       1.0000      1.0079
  207   2 H    1       7.810000   18.160002   34.438000       1.0000      1.0079
  208   1 O    8       9.820001    9.530001   29.938000       6.0000     15.9994
  209   2 H    1       9.200000    8.730000   29.967999       1.0000      1.0079
  210   2 H    1       9.870001    9.830000   28.987999       1.0000      1.0079
  211   1 O    8      11.530000    3.000000   35.367998       6.0000     15.9994
  212   2 H    1      11.830001    3.810000   34.838000       1.0000      1.0079
  213   2 H    1      11.490001    3.450000   36.348000       1.0000      1.0079
  214   1 O    8      10.080000    5.620000   29.348000       6.0000     15.9994
  215   2 H    1       9.880000    4.590000   29.508000       1.0000      1.0079
  216   2 H    1      10.980000    5.780000   29.697998       1.0000      1.0079
  217   1 O    8     -18.640001    7.720000   30.377999       6.0000     15.9994
  218   2 H    1     -19.460001    8.300000   30.407997       1.0000      1.0079
  219   2 H    1     -18.170000    8.010000   31.147999       1.0000      1.0079
  220   1 O    8       2.720000  -16.180000   29.517998       6.0000     15.9994
  221   2 H    1       3.400000  -15.640001   29.868000       1.0000      1.0079
  222   2 H    1       2.020000  -15.530001   29.377999       1.0000      1.0079
  223   1 O    8       2.570000    2.120000   30.067997       6.0000     15.9994
  224   2 H    1       2.960000    3.070000   30.107998       1.0000      1.0079
  225   2 H    1       2.280000    1.870000   29.188000       1.0000      1.0079
  226   1 O    8      15.750000   13.510000   39.268000       6.0000     15.9994
  227   2 H    1      15.870001   14.370001   39.617998       1.0000      1.0079
  228   2 H    1      15.730000   13.610001   38.287999       1.0000      1.0079
  229   1 O    8      -9.670001    5.200000   39.967999       6.0000     15.9994
  230   2 H    1      -9.350000    4.400000   39.547999       1.0000      1.0079
  231   2 H    1     -10.210000    4.940000   40.758000       1.0000      1.0079
  232   1 O    8      30.710001    3.560000   31.807999       6.0000     15.9994
  233   2 H    1      30.300003    4.470000   31.627999       1.0000      1.0079
  234   2 H    1      31.500000    3.470000   31.197998       1.0000      1.0079
  235   1 O    8     -12.710000   12.550001   33.708000       6.0000     15.9994
  236   2 H    1     -12.750001   11.680001   33.248000       1.0000      1.0079
  237   2 H    1     -11.930000   13.130001   33.387999       1.0000      1.0079
  238   1 O    8      -8.710001   21.540001   37.198000       6.0000     15.9994
  239   2 H    1      -8.060000   20.840000   37.498000       1.0000      1.0079
  240   2 H    1      -8.870000   21.390001   36.227999       1.0000      1.0079
  241   1 O    8      26.240002    0.390000   30.548001       6.0000     15.9994
  242   2 H    1      26.280001    1.360000   30.477997       1.0000      1.0079
  243   2 H    1      26.500000    0.180000   31.477999       1.0000      1.0079
  244   1 O    8      -1.710000   -9.800000   36.208001       6.0000     15.9994
  245   2 H    1      -2.160000   -9.600000   35.367998       1.0000      1.0079
  246   2 H    1      -1.140000   -8.920000   36.297999       1.0000      1.0079
  247   1 O    8       5.900001    6.360001   32.877999       6.0000     15.9994
  248   2 H    1       5.700001    5.550000   33.408001       1.0000      1.0079
  249   2 H    1       6.190000    5.970000   32.017998       1.0000      1.0079
  250   1 O    8      -4.770000    4.970000   33.897999       6.0000     15.9994
  251   2 H    1      -5.550000    5.560000   33.667998       1.0000      1.0079
  252   2 H    1      -4.140000    5.710001   34.228001       1.0000      1.0079
  253   1 O    8      -6.820001   25.130001   29.568001       6.0000     15.9994
  254   2 H    1      -7.800000   25.170002   29.557999       1.0000      1.0079
  255   2 H    1      -6.530001   26.080000   29.627999       1.0000      1.0079
  256   1 O    8      12.420001    7.860000   37.117998       6.0000     15.9994
  257   2 H    1       3.080000   22.850000   36.918000       1.0000      1.0079
  258   2 H    1      12.800001    8.660001   37.487999       1.0000      1.0079
  259   1 O    8     -13.260001    4.220000   39.228001       6.0000     15.9994
  260   2 H    1     -13.190001    3.340000   38.727999       1.0000      1.0079
  261   2 H    1     -12.650002    4.920000   38.727999       1.0000      1.0079
  262   1 O    8       8.330001    7.300000   30.318001       6.0000     15.9994
  263   2 H    1       7.390000    7.240000   30.067997       1.0000      1.0079
  264   2 H    1       8.810000    6.640000   29.798001       1.0000      1.0079
  265   1 O    8      -5.240001    5.990000   38.758000       6.0000     15.9994
  266   2 H    1      -4.620000    6.180000   39.558001       1.0000      1.0079
  267   2 H    1      -4.850000    6.630001   38.077999       1.0000      1.0079
  268   1 O    8      -5.110001   12.930001   29.247998       6.0000     15.9994
  269   2 H    1      -4.520000   13.690001   29.647999       1.0000      1.0079
  270   2 H    1      -4.570000   12.080001   29.237999       1.0000      1.0079
  271   1 O    8      -9.820001   28.420002   29.927998       6.0000     15.9994
  272   2 H    1      -9.870001   28.700001   29.017998       1.0000      1.0079
  273   2 H    1      -9.020000   28.940001   30.197998       1.0000      1.0079
  274   1 O    8      12.080001   13.810000   38.197998       6.0000     15.9994
  275   2 H    1      12.280001   14.810000   37.987999       1.0000      1.0079
  276   2 H    1      11.150000   13.850001   38.448000       1.0000      1.0079
  277   1 O    8      19.640001    8.290001   37.657999       6.0000     15.9994
  278   2 H    1      19.540001    7.940001   38.527998       1.0000      1.0079
  279   2 H    1      19.800001    9.240000   37.697998       1.0000      1.0079
  280   1 O    8      -5.550000  -18.640001   34.768000       6.0000     15.9994
  281   2 H    1      -4.960000  -17.990002   35.248001       1.0000      1.0079
  282   2 H    1      -6.120000  -19.110001   35.518000       1.0000      1.0079
  283   1 O    8       8.650001    2.950000   39.298001       6.0000     15.9994
  284   2 H    1       9.560000    3.050000   38.807999       1.0000      1.0079
  285   2 H    1       8.870000    2.310000   40.037999       1.0000      1.0079
  286   1 O    8       5.340000    5.940001   38.147999       6.0000     15.9994
  287   2 H    1       5.450000    5.580000   37.258000       1.0000      1.0079
  288   2 H    1       6.180000    5.780000   38.647999       1.0000      1.0079
  289   1 O    8      11.170001  -13.550000   35.307999       6.0000     15.9994
  290   2 H    1      11.520000  -13.800001   34.428000       1.0000      1.0079
  291   2 H    1      10.470000  -12.830001   35.127999       1.0000      1.0079
  292   1 O    8      16.890001    1.020000   38.077999       6.0000     15.9994
  293   2 H    1       0.080000    0.620000   37.168000       1.0000      1.0079
  294   2 H    1      16.370001    0.410000   38.638001       1.0000      1.0079
  295   1 O    8     -19.000000   16.490000   32.788000       6.0000     15.9994
  296   2 H    1     -18.860001   16.710001   31.827999       1.0000      1.0079
  297   2 H    1     -19.620001   15.790001   32.818001       1.0000      1.0079
  298   1 O    8      -4.920000    2.240000   30.067997       6.0000     15.9994
  299   2 H    1      -4.240000    2.820000   30.598000       1.0000      1.0079
  300   2 H    1      -4.730000    2.370000   29.107998       1.0000      1.0079
  301   1 O    8      -9.940001   -3.590000   33.408001       6.0000     15.9994
  302   2 H    1     -10.170001   -2.760000   33.877999       1.0000      1.0079
  303   2 H    1      -9.140000   -3.990000   33.968001       1.0000      1.0079
  304   3 Pt  78       1.930000    0.890000   26.848000      10.0000    195.0840
  305   3 Pt  78       4.730000    0.860000   26.957997      10.0000    195.0840
  306   3 Pt  78       7.590001    0.930000   26.857998      10.0000    195.0840
  307   3 Pt  78      10.310000    0.830000   26.947998      10.0000    195.0840
  308   3 Pt  78      13.110001    0.910000   26.908001      10.0000    195.0840
  309   3 Pt  78      15.950001    0.780000   26.947998      10.0000    195.0840
  310   3 Pt  78       3.380000    3.280000   26.848000      10.0000    195.0840
  311   3 Pt  78       6.100000    3.180000   26.737999      10.0000    195.0840
  312   3 Pt  78       8.990001    3.320000   26.817997      10.0000    195.0840
  313   3 Pt  78      11.670000    3.290000   27.127999      10.0000    195.0840
  314   3 Pt  78      14.530001    3.230000   26.877999      10.0000    195.0840
  315   3 Pt  78       0.480000    3.290000   26.868000      10.0000    195.0840
  316   3 Pt  78       4.820000    5.600000   26.877999      10.0000    195.0840
  317   3 Pt  78       7.590001    5.740000   26.897999      10.0000    195.0840
  318   3 Pt  78      10.260000    5.650000   27.037999      10.0000    195.0840
  319   3 Pt  78      13.120001    5.670000   26.647999      10.0000    195.0840
  320   3 Pt  78      -0.950000    5.700001   26.848000      10.0000    195.0840
  321   3 Pt  78       1.800000    5.680000   26.877999      10.0000    195.0840
  322   3 Pt  78       6.060000    8.050001   26.908001      10.0000    195.0840
  323   3 Pt  78       8.760000    8.070001   26.897999      10.0000    195.0840
  324   3 Pt  78      11.690001    8.070001   26.868000      10.0000    195.0840
  325   3 Pt  78      -2.390000    8.150001   26.848000      10.0000    195.0840
  326   3 Pt  78       0.440000    8.140000   26.848000      10.0000    195.0840
  327   3 Pt  78       3.180000    8.030001   26.908001      10.0000    195.0840
  328   3 Pt  78       7.380000   10.480001   26.957997      10.0000    195.0840
  329   3 Pt  78      10.220001   10.510000   26.918000      10.0000    195.0840
  330   3 Pt  78      -3.920000   10.600000   26.957997      10.0000    195.0840
  331   3 Pt  78      -0.800000   10.610001   26.987999      10.0000    195.0840
  332   3 Pt  78       1.910000   10.520000   27.068001      10.0000    195.0840
  333   3 Pt  78       4.730000   10.559999   26.868000      10.0000    195.0840
  334   3 Pt  78       8.810000   12.920000   26.868000      10.0000    195.0840
  335   3 Pt  78      -5.170000   13.160001   27.077999      10.0000    195.0840
  336   3 Pt  78      -2.340000   12.890000   26.887997      10.0000    195.0840
  337   3 Pt  78       0.310000   13.200001   26.848000      10.0000    195.0840
  338   3 Pt  78       3.210000   12.960000   26.978001      10.0000    195.0840
  339   3 Pt  78       6.060000   13.090000   26.747998      10.0000    195.0840
  340   3 Pt  78       0.290000    1.540000   24.508000      10.0000    195.0840
  341   3 Pt  78       3.100000    1.600000   24.548001      10.0000    195.0840
  342   3 Pt  78       5.930000    1.440000   24.467999      10.0000    195.0840
  343   3 Pt  78       8.740000    1.500000   24.348000      10.0000    195.0840
  344   3 Pt  78      11.640000    1.540000   24.577999      10.0000    195.0840
  345   3 Pt  78      14.340000    1.440000   24.537999      10.0000    195.0840
  346   3 Pt  78       1.730000    4.010000   24.607998      10.0000    195.0840
  347   3 Pt  78       4.720000    4.030000   24.487999      10.0000    195.0840
  348   3 Pt  78       7.430000    3.910000   24.508000      10.0000    195.0840
  349   3 Pt  78      10.110001    3.860000   24.557999      10.0000    195.0840
  350   3 Pt  78      12.880001    4.000000   24.438000      10.0000    195.0840
  351   3 Pt  78      -1.220000    3.940000   24.478001      10.0000    195.0840
  352   3 Pt  78       3.110000    6.530001   24.618000      10.0000    195.0840
  353   3 Pt  78       5.970000    6.410000   24.457997      10.0000    195.0840
  354   3 Pt  78       8.740000    6.450000   24.438000      10.0000    195.0840
  355   3 Pt  78      11.400002    6.390000   24.657997      10.0000    195.0840
  356   3 Pt  78      -2.500000    6.390000   24.427998      10.0000    195.0840
  357   3 Pt  78       0.320000    6.400001   24.478001      10.0000    195.0840
  358   3 Pt  78       4.490000    8.890000   24.517998      10.0000    195.0840
  359   3 Pt  78       7.180000    8.910000   24.517998      10.0000    195.0840
  360   3 Pt  78      10.140000    8.890000   24.587998      10.0000    195.0840
  361   3 Pt  78      -3.960000    8.750001   24.557999      10.0000    195.0840
  362   3 Pt  78      -1.070000    8.740000   24.508000      10.0000    195.0840
  363   3 Pt  78       1.740000    8.940001   24.587998      10.0000    195.0840
  364   3 Pt  78       5.920000   11.370001   24.517998      10.0000    195.0840
  365   3 Pt  78       8.790001   11.390000   24.557999      10.0000    195.0840
  366   3 Pt  78      -5.360000   11.240001   24.728001      10.0000    195.0840
  367   3 Pt  78      -2.480000   11.170001   24.717999      10.0000    195.0840
  368   3 Pt  78       0.310000   11.400002   24.527996      10.0000    195.0840
  369   3 Pt  78       2.950000   11.410000   24.708001      10.0000    195.0840
  370   3 Pt  78       7.300000   13.670001   24.478001      10.0000    195.0840
  371   3 Pt  78      -6.670001   13.830000   24.647999      10.0000    195.0840
  372   3 Pt  78      -3.990000   13.640001   24.638001      10.0000    195.0840
  373   3 Pt  78      -1.160000   13.730000   24.517998      10.0000    195.0840
  374   3 Pt  78       1.650000   13.780001   24.607998      10.0000    195.0840
  375   3 Pt  78       4.430000   13.750001   24.478001      10.0000    195.0840
  376   3 Pt  78      -8.270000   14.530001   22.298001      10.0000    195.0840
  377   3 Pt  78      -5.430000   14.490002   22.317997      10.0000    195.0840
  378   3 Pt  78      -2.580000   14.380001   22.228001      10.0000    195.0840
  379   3 Pt  78       0.140000   14.390000   22.147999      10.0000    195.0840
  380   3 Pt  78       2.970000   14.490002   22.207997      10.0000    195.0840
  381   3 Pt  78       5.750000   14.540001   22.118000      10.0000    195.0840
  382   3 Pt  78       1.530000    2.370000   22.228001      10.0000    195.0840
  383   3 Pt  78       4.420000    2.350000   22.287999      10.0000    195.0840
  384   3 Pt  78       7.210000    2.380000   22.077996      10.0000    195.0840
  385   3 Pt  78      10.030001    2.210000   22.177998      10.0000    195.0840
  386   3 Pt  78      12.920000    2.300000   22.127999      10.0000    195.0840
  387   3 Pt  78      -1.250000    2.340000   22.168000      10.0000    195.0840
  388   3 Pt  78       3.050000    4.790000   22.217999      10.0000    195.0840
  389   3 Pt  78       5.870000    4.770000   22.207997      10.0000    195.0840
  390   3 Pt  78       8.700001    4.810000   22.188000      10.0000    195.0840
  391   3 Pt  78      11.390000    4.730000   22.158001      10.0000    195.0840
  392   3 Pt  78      -2.670000    4.690000   22.147999      10.0000    195.0840
  393   3 Pt  78       0.270000    4.780000   22.177998      10.0000    195.0840
  394   3 Pt  78       4.440001    7.210000   22.197998      10.0000    195.0840
  395   3 Pt  78       7.280001    7.310000   22.177998      10.0000    195.0840
  396   3 Pt  78      10.010000    7.320001   22.277996      10.0000    195.0840
  397   3 Pt  78      -4.110000    7.180000   22.217999      10.0000    195.0840
  398   3 Pt  78      -1.140000    7.190001   22.127999      10.0000    195.0840
  399   3 Pt  78       1.620000    7.180000   22.247998      10.0000    195.0840
  400   3 Pt  78       5.800000    9.770000   22.188000      10.0000    195.0840
  401   3 Pt  78       8.610001    9.660000   22.317997      10.0000    195.0840
  402   3 Pt  78      -5.400000    9.680000   22.357998      10.0000    195.0840
  403   3 Pt  78      -2.550000    9.550000   22.247998      10.0000    195.0840
  404   3 Pt  78       0.310000    9.580001   22.197998      10.0000    195.0840
  405   3 Pt  78       2.970000    9.700001   22.197998      10.0000    195.0840
  406   3 Pt  78       7.190001   12.110001   22.168000      10.0000    195.0840
  407   3 Pt  78      -6.870000   12.160001   22.357998      10.0000    195.0840
  408   3 Pt  78      -4.050000   12.050000   22.258000      10.0000    195.0840
  409   3 Pt  78      -1.210000   11.980001   22.228001      10.0000    195.0840
  410   3 Pt  78       1.550000   12.090001   22.158001      10.0000    195.0840
  411   3 Pt  78       4.330000   12.140001   22.188000      10.0000    195.0840
  412   3 Pt  78       1.580000    0.720000   20.000001      10.0000    195.0840
  413   3 Pt  78       4.410000    0.600000   20.000001      10.0000    195.0840
  414   3 Pt  78       7.150001    0.750000   19.830001      10.0000    195.0840
  415   3 Pt  78       9.960001    0.700000   19.840001      10.0000    195.0840
  416   3 Pt  78      12.810000    0.630000   19.840001      10.0000    195.0840
  417   3 Pt  78      15.560001    0.670000   19.850001      10.0000    195.0840
  418   3 Pt  78       3.010000    3.040000   19.890001      10.0000    195.0840
  419   3 Pt  78       5.760000    3.110000   19.890001      10.0000    195.0840
  420   3 Pt  78       8.570001    3.270000   19.880001      10.0000    195.0840
  421   3 Pt  78      11.350001    3.010000   19.830001      10.0000    195.0840
  422   3 Pt  78      14.200001    3.090000   19.840001      10.0000    195.0840
  423   3 Pt  78       0.160000    3.070000   19.850001      10.0000    195.0840
  424   3 Pt  78       4.300000    5.550000   19.860001      10.0000    195.0840
  425   3 Pt  78       7.140000    5.680000   19.900001      10.0000    195.0840
  426   3 Pt  78       9.900001    5.640000   19.880001      10.0000    195.0840
  427   3 Pt  78      12.710000    5.530000   19.920001      10.0000    195.0840
  428   3 Pt  78      -1.300000    5.520000   19.950001      10.0000    195.0840
  429   3 Pt  78       1.590000    5.430000   19.940001      10.0000    195.0840
  430   3 Pt  78       5.770000    8.070001   19.890001      10.0000    195.0840
  431   3 Pt  78       8.590000    8.090000   19.860001      10.0000    195.0840
  432   3 Pt  78      11.460000    8.010000   19.950001      10.0000    195.0840
  433   3 Pt  78      -2.650000    7.970000   19.900001      10.0000    195.0840
  434   3 Pt  78       0.230000    7.910000   19.840001      10.0000    195.0840
  435   3 Pt  78       3.010000    7.970000   19.900001      10.0000    195.0840
  436   3 Pt  78       7.210000   10.559999   19.970001      10.0000    195.0840
  437   3 Pt  78      10.030001   10.370001   20.010001      10.0000    195.0840
  438   3 Pt  78      -4.060000   10.380001   19.970001      10.0000    195.0840
  439   3 Pt  78      -1.250000   10.360001   19.850001      10.0000    195.0840
  440   3 Pt  78       1.550000   10.410000   19.750001      10.0000    195.0840
  441   3 Pt  78       4.330000   10.430001   19.980001      10.0000    195.0840
  442   3 Pt  78       8.530001   12.930001   19.910001      10.0000    195.0840
  443   3 Pt  78      -5.540000   12.780001   20.060001      10.0000    195.0840
  444   3 Pt  78      -2.640000   12.780001   19.900001      10.0000    195.0840
  445   3 Pt  78       0.030000   12.780001   19.830001      10.0000    195.0840
  446   3 Pt  78       2.860000   12.860001   19.820001      10.0000    195.0840
  447   3 Pt  78       5.710001   12.890000   19.830001      10.0000    195.0840
  448   3 Pt  78       0.150000    1.430000   17.510001      10.0000    195.0840
  449   3 Pt  78       2.870000    1.410000   17.620000      10.0000    195.0840
  450   3 Pt  78       5.710001    1.480000   17.630001      10.0000    195.0840
  451   3 Pt  78       8.510000    1.570000   17.480000      10.0000    195.0840
  452   3 Pt  78      11.400002    1.540000   17.480000      10.0000    195.0840
  453   3 Pt  78      14.160000    1.380000   17.600001      10.0000    195.0840
  454   3 Pt  78       1.440000    3.790000   17.450001      10.0000    195.0840
  455   3 Pt  78       4.240000    3.890000   17.560000      10.0000    195.0840
  456   3 Pt  78       7.000000    3.880000   17.630001      10.0000    195.0840
  457   3 Pt  78       9.930000    3.980000   17.520000      10.0000    195.0840
  458   3 Pt  78      12.730000    3.890000   17.570000      10.0000    195.0840
  459   3 Pt  78      -1.290000    3.870000   17.570000      10.0000    195.0840
  460   3 Pt  78       2.910000    6.210001   17.550000      10.0000    195.0840
  461   3 Pt  78       5.640000    6.410000   17.630001      10.0000    195.0840
  462   3 Pt  78       8.480000    6.380000   17.590000      10.0000    195.0840
  463   3 Pt  78      11.430000    6.360001   17.620000      10.0000    195.0840
  464   3 Pt  78      -2.740000    6.300001   17.620000      10.0000    195.0840
  465   3 Pt  78       0.070000    6.260000   17.610001      10.0000    195.0840
  466   3 Pt  78       4.220000    8.840000   17.500000      10.0000    195.0840
  467   3 Pt  78       6.960001    8.750001   17.650001      10.0000    195.0840
  468   3 Pt  78       9.910001    8.730000   17.590000      10.0000    195.0840
  469   3 Pt  78      -4.160000    8.820001   17.620000      10.0000    195.0840
  470   3 Pt  78      -1.330000    8.700001   17.590000      10.0000    195.0840
  471   3 Pt  78       1.550000    8.680000   17.470001      10.0000    195.0840
  472   3 Pt  78       5.790000   11.290001   17.500000      10.0000    195.0840
  473   3 Pt  78       8.550000   11.140001   17.560000      10.0000    195.0840
  474   3 Pt  78      -5.540000   11.130000   17.660000      10.0000    195.0840
  475   3 Pt  78      -2.840000   11.180000   17.600001      10.0000    195.0840
  476   3 Pt  78       0.090000   11.170001   17.580001      10.0000    195.0840
  477   3 Pt  78       2.960000   11.210001   17.380001      10.0000    195.0840
  478   3 Pt  78       7.250000   13.700001   17.430000      10.0000    195.0840
  479   3 Pt  78      -6.890000   13.520001   17.660000      10.0000    195.0840
  480   3 Pt  78      -4.150000   13.580000   17.650001      10.0000    195.0840
  481   3 Pt  78      -1.340000   13.700001   17.620000      10.0000    195.0840
  482   3 Pt  78       1.510000   13.570002   17.450001      10.0000    195.0840
  483   3 Pt  78       4.320000   13.570002   17.580001      10.0000    195.0840
  484   3 Pt  78      -8.330001   14.140000   15.170000      10.0000    195.0840
  485   3 Pt  78      -5.470000   14.290000   15.300000      10.0000    195.0840
  486   3 Pt  78      -2.690000   14.410001   15.270000      10.0000    195.0840
  487   3 Pt  78      -0.040000   14.300001   15.190001      10.0000    195.0840
  488   3 Pt  78       2.990000   14.260001   15.040000      10.0000    195.0840
  489   3 Pt  78       5.660000   14.450001   15.200001      10.0000    195.0840
  490   3 Pt  78       1.480000    1.980000   15.200001      10.0000    195.0840
  491   3 Pt  78       4.240000    2.090000   15.310000      10.0000    195.0840
  492   3 Pt  78       7.190001    2.070000   15.180000      10.0000    195.0840
  493   3 Pt  78      10.010000    2.210000   15.010001      10.0000    195.0840
  494   3 Pt  78      12.910000    2.250000   15.280000      10.0000    195.0840
  495   3 Pt  78      -1.350000    2.260000   15.100000      10.0000    195.0840
  496   3 Pt  78       2.840000    4.520000   15.210001      10.0000    195.0840
  497   3 Pt  78       5.690000    4.460000   15.170000      10.0000    195.0840
  498   3 Pt  78       8.470000    4.540000   15.170000      10.0000    195.0840
  499   3 Pt  78      11.290001    4.570000   15.210001      10.0000    195.0840
  500   3 Pt  78      -2.730000    4.730000   15.170000      10.0000    195.0840
  501   3 Pt  78       0.110000    4.600000   15.140000      10.0000    195.0840
  502   3 Pt  78       4.320000    6.940000   15.290000      10.0000    195.0840
  503   3 Pt  78       7.100000    6.830000   15.280000      10.0000    195.0840
  504   3 Pt  78       9.920000    7.030000   15.390000      10.0000    195.0840
  505   3 Pt  78      -4.120000    7.070000   15.260000      10.0000    195.0840
[...]
 -                                                                             -
 -------------------------------------------------------------------------------
 COUNTER                                    TOTAL       BLAS       SMM       ACC
 flops     5 x    32 x     5           4046368000       0.0%    100.0%      0.0%
 flops    13 x    32 x     5           5166653440       0.0%    100.0%      0.0%
 flops     5 x    32 x    13           5166653440       0.0%    100.0%      0.0%
 flops    13 x    32 x    13           6100375424       0.0%    100.0%      0.0%
 flops     5 x     5 x    96           6296371200       0.0%    100.0%      0.0%
 flops     5 x    13 x    96           7994388480       0.0%    100.0%      0.0%
 flops    13 x     5 x    96           8005570560       0.0%    100.0%      0.0%
 flops    13 x    32 x    20           8705315840       0.0%    100.0%      0.0%
 flops    20 x    32 x    13           8705315840       0.0%    100.0%      0.0%
 flops     5 x    32 x    20           9315276800       0.0%    100.0%      0.0%
 flops    20 x    32 x     5           9315276800       0.0%    100.0%      0.0%
 flops    13 x    13 x    96           9550614528       0.0%    100.0%      0.0%
 flops    20 x    13 x    96          13456834560       0.0%    100.0%      0.0%
 flops    13 x    20 x    96          13501562880       0.0%    100.0%      0.0%
 flops    20 x     5 x    96          14418739200       0.0%    100.0%      0.0%
 flops     5 x    20 x    96          14428569600       0.0%    100.0%      0.0%
 flops     5 x     5 x   128          58766131200       0.0%    100.0%      0.0%
 flops    20 x    32 x    20          74052403200       0.0%    100.0%      0.0%
 flops     5 x    13 x   128          74614292480       0.0%    100.0%      0.0%
 flops    13 x     5 x   128          74718658560       0.0%    100.0%      0.0%
 flops    13 x    13 x   128          89139068928       0.0%    100.0%      0.0%
 flops    20 x    20 x    96         115192627200       0.0%    100.0%      0.0%
 flops    20 x    13 x   128         125597122560       0.0%    100.0%      0.0%
 flops    13 x    20 x   128         126014586880       0.0%    100.0%      0.0%
 flops    20 x     5 x   128         134574899200       0.0%    100.0%      0.0%
 flops     5 x    20 x   128         134666649600       0.0%    100.0%      0.0%
 flops    20 x    20 x   128        1075131187200       0.0%    100.0%      0.0%
 flops inhomo. stacks                           0       0.0%      0.0%      0.0%
 flops total                         2.226642E+12       0.0%    100.0%      0.0%
 flops max/rank                     20.510200E+09       0.0%    100.0%      0.0%
 matmuls inhomo. stacks                         0       0.0%      0.0%      0.0%
 matmuls total                           63871194       0.0%    100.0%      0.0%
 number of processed stacks                611050       0.0%    100.0%      0.0%
 average stack size                                     0.0     104.5       0.0
 marketing flops                     4.536594E+12
 -------------------------------------------------------------------------------
 # multiplications                             33
 max memory usage/rank               1.608917E+09
 # max total images/rank                        2
 # max 3D layers                                1
 # MPI messages exchanged                  122496
 MPI messages size (bytes):
  total size                        78.915002E+09
  min size                         288.768000E+03
  max size                           2.235312E+06
  average size                     644.225125E+03
 MPI breakdown and total messages size (bytes):
             size <=      128                   0                        0
       128 < size <=     8192                   0                        0
      8192 < size <=    32768                   0                        0
     32768 < size <=   131072                   0                        0
    131072 < size <=  4194304              122496              78915001416
   4194304 < size <= 16777216                   0                        0
  16777216 < size                               0                        0
 -------------------------------------------------------------------------------

 *** WARNING in dbcsr_mm.F:290 :: Using a non-square number of MPI ranks ***
 *** might lead to poor performance. Used ranks: 128 Suggested: 121 256  ***

 -------------------------------------------------------------------------------
 -                                                                             -
 -                      DBCSR MESSAGE PASSING PERFORMANCE                      -
 -                                                                             -
 -------------------------------------------------------------------------------
 ROUTINE             CALLS      AVE VOLUME [Bytes]
 MP_Bcast               28                     12.
 MP_Allreduce          298                     12.
 MP_Alltoall           917                 601796.
 MP_ISend             2112                 304293.
 MP_IRecv             2112                 297803.
 -------------------------------------------------------------------------------

 -------------------------------------------------------------------------------
 -                                                                             -
 -                                DBM STATISTICS                               -
 -                                                                             -
 -------------------------------------------------------------------------------
    M  x    N  x    K                                          COUNT     PERCENT
 -------------------------------------------------------------------------------

 -------------------------------------------------------------------------------
 -                                                                             -
 -                                GRID STATISTICS                              -
 -                                                                             -
 -------------------------------------------------------------------------------
 LP    KERNEL             BACKEND                              COUNT     PERCENT
 4     collocate general  REF                               12592479      21.88%
 4     integrate general  REF                               12474042      21.67%
 3     collocate general  REF                                8920932      15.50%
 3     integrate general  REF                                8863195      15.40%
 2     collocate general  REF                                7131085      12.39%
 2     integrate general  REF                                6901050      11.99%
 5     integrate general  REF                                 406209       0.71%
 0     collocate general  REF                                 132864       0.23%
 0     integrate general  REF                                  66432       0.12%
 1     integrate general  REF                                  66432       0.12%
 -------------------------------------------------------------------------------

 MEMORY| Estimated peak process memory [MiB]                                1785

 -------------------------------------------------------------------------------
 ----                             MULTIGRID INFO                            ----
 -------------------------------------------------------------------------------
 count for grid        1:        1098376          cutoff [a.u.]          200.00
 count for grid        2:        1093491          cutoff [a.u.]           66.67
 count for grid        3:         719327          cutoff [a.u.]           22.22
 count for grid        4:         558150          cutoff [a.u.]            7.41
 total gridlevel count  :        3469344

 -------------------------------------------------------------------------------
 -                                                                             -
 -                         MESSAGE PASSING PERFORMANCE                         -
 -                                                                             -
 -------------------------------------------------------------------------------

 ROUTINE             CALLS      AVE VOLUME [Bytes]
 MP_Group                4
 MP_Bcast             2189                 308764.
 MP_Allreduce         3228                  33783.
 MP_Sync                68
 MP_Alltoall          1882               16762445.
 MP_SendRecv           508                   6117.
 MP_ISendRecv        15748                  61740.
 MP_Wait             28030
 MP_comm_split          32
 MP_ISend            11580                 256518.
 MP_IRecv            11580                 256518.
 MP_Recv               122                1700608.
 MP_Write_All            3                1797408.
 -------------------------------------------------------------------------------


 -------------------------------------------------------------------------------
 -                                                                             -
 -                           R E F E R E N C E S                               -
 -                                                                             -
 -------------------------------------------------------------------------------
 
 CP2K version 2022.1, the CP2K developers group (2022).
 CP2K is freely available from https://www.cp2k.org/ .

 Kuehne,Thomas D.; Iannuzzi,Marcella; Del Ben,Mauro;
 Rybkin,Vladimir V.; Seewald,Patrick; Stein,Frederick; Laino,Teodoro;
 Khaliullin,Rustam Z.; Schuett,Ole; Schiffmann,Florian; Golze,Dorothea;
 Wilhelm,Jan; Chulkov,Sergey; Bani-Hashemian,Mohammad Hossein;
 Weber,Valery; Borstnik,Urban; Taillefumier,Mathieu;
 Jakobovits,Alice Shoshana; Lazzaro,Alfio; Pabst,Hans; Mueller,Tiziano;
 Schade,Robert; Guidon,Manuel; Andermatt,Samuel; Holmberg,Nico;
 Schenter,Gregory K.; Hehn,Anna; Bussy,Augustin; Belleflamme,Fabian;
 Tabacchi,Gloria; Gloess,Andreas; Lass,Michael; Bethune,Iain;
 Mundy,Christopher J.; Plessl,Christian; Watkins,Matt;
 VandeVondele,Joost; Krack,Matthias; Hutter,Juerg. 
 The Journal of Chemical Physics, 152 (19), (2020). 
 CP2K: An electronic structure and molecular dynamics software package -
 Quickstep: Efficient and accurate electronic structure calculations.
 https://doi.org/10.1063/5.0007045

 Goerigk, Lars; Hansen, Andreas; Bauer, Christoph; Ehrlich, Stephan;
 Najibi, Asim; Grimme, Stefan. , 19 (48), (2017). 
 A look at the density functional theory zoo with the advanced GMTKN55 database
 for general main group thermochemistry, kinetics and noncovalent interactions.
 https://doi.org/10.1039/C7CP04913G

 Bani-Hashemian, MH; Bruck, S; Luisier, M; VandeVondele, J. 
 JOURNAL OF CHEMICAL PHYSICS, 144 (4), 044113 (2016). 
 A generalized Poisson solver for first-principles device simulations.
 https://doi.org/10.1063/1.4940796

 Schuett, Ole; Messmer, Peter; Hutter, Juerg; VandeVondele, Joost. 
 Electronic Structure Calculations on Graphics Processing Units, John
 Wiley & Sons, Ltd, 173-190 (2016). 
 GPU-Accelerated Sparse Matrix-Matrix Multiplication for
 Linear Scaling Density Functional Theory.
 https://doi.org/10.1002/9781118670712.ch8

 Heinecke, A; Henry, G; Hutchinson, M; Pabst, H. 
 Proceedings of Intl. Supercomputing Conference, 981-991 (2016). 
 LIBXSMM: Accelerating Small Matrix Multiplications
 by Runtime Code Generation.
 https://doi.org/10.1109/SC.2016.83

 Borstnik, U; VandeVondele, J; Weber, V; Hutter, J. 
 PARALLEL COMPUTING, 40 (5-6), 47-58 (2014). 
 Sparse matrix multiplication: The distributed block-compressed sparse
 row library.
 https://doi.org/10.1016/j.parco.2014.03.012

 Hutter, J; Iannuzzi, M; Schiffmann, F; VandeVondele, J. 
 WIREs Comput Mol Sci., 4 (1), 15-25 (2014). 
 CP2K: atomistic simulations of condensed matter systems.
 https://doi.org/10.1002/wcms.1159

 Marek, A; Blum, V; Johanni, R; Havu, V; Lang, B; Auckenthaler, T;
 Heinecke, A; Bungartz, H; Lederer, H. 
 Journal of Physics: Condensed Matter, 26 (21), (2014). 
 The ELPA library: scalable parallel eigenvalue solutions for
 electronic structure
 theory and computational science.
 https://doi.org/10.1088/0953-8984/26/21/213201

 Grimme, S; Ehrlich, S; Goerigk, L. 
 JOURNAL OF COMPUTATIONAL CHEMISTRY, 32, 1456 (2011). 
 Effect of the damping function in dispersion corrected density functional theory.
 https://doi.org/10.1002/jcc.21759

 Grimme, S; Antony, J; Ehrlich, S; Krieg, H. 
 JOURNAL OF CHEMICAL PHYSICS, 132 (15), 154104 (2010). 
 A consistent and accurate ab initio parametrization of density
 functional dispersion correction (DFT-D) for the 94 elements H-Pu.
 https://doi.org/10.1063/1.3382344

 VandeVondele, J; Hutter, J. 
 JOURNAL OF CHEMICAL PHYSICS, 127 (11), 114105 (2007). 
 Gaussian basis sets for accurate calculations on molecular systems in
 gas and condensed phases.
 https://doi.org/10.1063/1.2770708

 Krack, M. 
 THEORETICAL CHEMISTRY ACCOUNTS, 114 (1-3), 145-152 (2005). 
 Pseudopotentials for H to Kr optimized for gradient-corrected
 exchange-correlation functionals.
 https://doi.org/10.1007/s00214-005-0655-y

 VandeVondele, J; Krack, M; Mohamed, F; Parrinello, M; Chassaing, T;
 Hutter, J. COMPUTER PHYSICS COMMUNICATIONS, 167 (2), 103-128 (2005). 
 QUICKSTEP: Fast and accurate density functional calculations using a
 mixed Gaussian and plane waves approach.
 https://doi.org/10.1016/j.cpc.2004.12.014

 Frigo, M; Johnson, SG. 
 PROCEEDINGS OF THE IEEE, 93 (2), 216-231 (2005). 
 The design and implementation of FFTW3.
 https://doi.org/10.1109/JPROC.2004.840301

 Hartwigsen, C; Goedecker, S; Hutter, J. 
 PHYSICAL REVIEW B, 58 (7), 3641-3662 (1998). 
 Relativistic separable dual-space Gaussian pseudopotentials from H to Rn.
 https://doi.org/10.1103/PhysRevB.58.3641

 Lippert, G; Hutter, J; Parrinello, M. 
 MOLECULAR PHYSICS, 92 (3), 477-487 (1997). 
 A hybrid Gaussian and plane wave density functional scheme.
 https://doi.org/10.1080/002689797170220

 Perdew, JP; Burke, K; Ernzerhof, M. 
 PHYSICAL REVIEW LETTERS, 77 (18), 3865-3868 (1996). 
 Generalized gradient approximation made simple.
 https://doi.org/10.1103/PhysRevLett.77.3865

 Goedecker, S; Teter, M; Hutter, J. 
 PHYSICAL REVIEW B, 54 (3), 1703-1710 (1996). 
 Separable dual-space Gaussian pseudopotentials.
 https://doi.org/10.1103/PhysRevB.54.1703


 -------------------------------------------------------------------------------
 -                                                                             -
 -                                T I M I N G                                  -
 -                                                                             -
 -------------------------------------------------------------------------------
 SUBROUTINE                       CALLS  ASD         SELF TIME        TOTAL TIME
                                MAXIMUM       AVERAGE  MAXIMUM  AVERAGE  MAXIMUM
 CP2K                                 1  1.0    0.359    0.371  220.821  220.822
 qs_forces                            1  2.0    0.002    0.002  220.096  220.097
 qs_energies                          1  3.0    0.000    0.000  213.953  213.957
 scf_env_do_scf                       1  4.0    0.000    0.000  204.734  204.871
 scf_env_do_scf_inner_loop           30  5.0    0.002    0.004  204.730  204.868
 rebuild_ks_matrix                   31  6.9    0.000    0.000  111.451  111.477
 qs_ks_build_kohn_sham_matrix        31  7.9    0.005    0.006  111.451  111.477
 qs_ks_update_qs_env                 30  6.0    0.000    0.000  107.485  107.510
 pw_transfer                       1616 12.2    0.118    0.146   71.077   72.586
 fft_wrap_pw1pw2                   1616 13.2    0.015    0.019   70.958   72.441
 fft_wrap_pw1pw2_200               1430 14.4    4.747    5.577   70.023   71.456
 pw_poisson_solve                    31  8.9    0.003    0.007   60.665   60.710
 qs_scf_new_mos                      30  6.0    0.001    0.004   59.311   59.391
 fft3d_ps                          1616 15.2   20.250   22.574   57.191   59.131
 implicit_poisson_solver_mixed_      31  9.9    1.278    1.556   57.325   57.366
 eigensolver                         30  7.0    0.002    0.004   55.855   56.034
 derive_fft                         186 12.1    0.012    0.014   40.165   40.290
 cp_fm_diag_elpa                     32  8.1    0.000    0.001   39.678   39.783
 cp_fm_redistribute_end              32  9.1    5.284   39.324    5.356   39.366
 cp_fm_diag_elpa_base                32  9.0   33.504   38.467   33.820   38.800
 mp_alltoall_z22v                  1616 17.2   31.020   37.924   31.020   37.924
 apply_P_operator                   155 11.1    0.827    0.935   34.335   34.453
 qs_rho_update_rho_low               31  6.0    0.000    0.000   33.937   33.958
 calculate_rho_elec                  31  7.0    0.060    0.075   33.937   33.958
 sum_up_and_integrate                31  8.9    0.168    0.229   33.366   33.397
 integrate_v_rspace                  31  9.9    0.001    0.003   33.198   33.277
 grid_collocate_task_list            31  8.0   22.758   26.394   22.758   26.394
 x_to_yz                            931 16.4    3.957    5.102   23.362   24.191
 grid_integrate_task_list            31 10.9   21.197   23.997   21.197   23.997
 cp_fm_triangular_multiply           90  8.0   17.733   17.917   17.733   17.917
 yz_to_x                            499 16.4    1.365    1.591   12.864   17.457
 rs_pw_transfer                     252 10.4    0.003    0.003   14.283   16.392
 qs_vxc_create                       31  8.9    0.001    0.001   15.559   15.764
 xc_vxc_pw_create                    31  9.9    0.264    0.324   15.558   15.764
 density_rs2pw                       31  8.0    0.002    0.002   10.364   12.569
 xc_pw_derive                       186 11.9    0.003    0.003   11.047   12.263
 apply_poisson_operator_fft          31 10.9    0.000    0.000   10.020   10.193
 apply_inv_laplace_operator_fft      95 11.6    0.237    0.295    9.269    9.592
 potential_pw2rs                     31 10.9    0.009    0.010    8.814    8.883
 xc_pw_divergence                    31 10.9    0.001    0.002    7.508    8.403
 xc_rho_set_and_dset_create          31 10.9    0.153    0.180    7.518    7.999
 rs_pw_transfer_RS2PW_200            33  9.9    2.161    2.392    5.791    7.868
 mp_waitany                       11580 12.3    5.638    7.766    5.638    7.766
 ps_implicit_compute_error_fft       62 10.9    0.390    0.475    6.853    7.329
 ps_implicit_compute_veps            31 10.9    0.180    0.213    6.839    6.953
 pw_scatter_p                      1024 15.3    5.728    6.767    5.728    6.767
 mp_alltoall_d11v                   456 10.3    4.151    5.989    4.151    5.989
 scf_post_calculation_gpw             1  4.0    0.000    0.001    5.745    5.751
 write_available_results              1  5.0    0.000    0.000    5.744    5.750
 rs_pw_transfer_PW2RS_200            33 12.6    2.493    2.623    5.198    5.360
 pw_derive                          744 13.0    4.729    5.211    4.729    5.211
 rs_gather_matrices                  31 10.9    0.038    0.050    3.174    5.012
 gspace_mixing                       29  6.0    0.055    0.070    4.936    4.940
 -------------------------------------------------------------------------------

 The number of warnings for this run is : 1
 
 -------------------------------------------------------------------------------
  **** **** ******  **  PROGRAM ENDED AT                 2023-12-02 09:14:53.398
 ***** ** ***  *** **   PROGRAM RAN ON                                     cu001
 **    ****   ******    PROGRAM RAN BY                                     jxzhu
 ***** **    ** ** **   PROGRAM PROCESS ID                                 35294
  **** **  *******  **  PROGRAM STOPPED IN /public/home/jxzhu/tmp_calc/a69e440f6
                                           f49697ca8e55d32a39ef07cebff9f6e/calc/
                                           001100.000/search_hi.000002
