 DBCSR| CPU Multiplication driver                                           XSMM
 DBCSR| Multrec recursion limit                                              512
 DBCSR| Multiplication stack size                                           1000
 DBCSR| Maximum elements for images                                    UNLIMITED
 DBCSR| Multiplicative factor virtual images                                   1
 DBCSR| Use multiplication densification                                       T
 DBCSR| Multiplication size stacks                                             3
 DBCSR| Use memory pool for CPU allocation                                     F
 DBCSR| Number of 3D layers                                               SINGLE
 DBCSR| Use MPI memory allocation                                              F
 DBCSR| Use RMA algorithm                                                      F
 DBCSR| Use Communication thread                                               T
 DBCSR| Communication thread load                                             87
 DBCSR| MPI: My node id                                                        0
 DBCSR| MPI: Number of nodes                                                 128
 DBCSR| OMP: Current number of threads                                         1
 DBCSR| OMP: Max number of threads                                             1
 DBCSR| Split modifier for TAS multiplication algorithm                  1.0E+00


  **** **** ******  **  PROGRAM STARTED AT               2023-12-02 00:06:54.716
 ***** ** ***  *** **   PROGRAM STARTED ON                                 cu011
 **    ****   ******    PROGRAM STARTED BY                                 jxzhu
 ***** **    ** ** **   PROGRAM PROCESS ID                                 62282
  **** **  *******  **  PROGRAM STARTED IN /public/home/jxzhu/tmp_calc/0201d2068
                                           31c8faf26c211859bc4969632f06006/calc/
                                           000300.000/search_hi.000000

 CP2K| version string:                                       CP2K version 2022.1
 CP2K| source code revision number:                                  git:2caeb6f
 CP2K| cp2kflags: omp libint fftw3 libxc elpa parallel mpi3 scalapack cosma xsmm
 CP2K|             plumed2 spglib mkl sirius libvori libbqb
 CP2K| is freely available from                            https://www.cp2k.org/
 CP2K| Program compiled at                           Mon Jul 3 17:37:06 CST 2023
 CP2K| Program compiled on                                                 mu003
 CP2K| Program compiled for                                                local
 CP2K| Data directory path                             /public/home/jxzhu/basis/
 CP2K| Input file name                                                 input.inp
 
 GLOBAL| Force Environment number                                              1
 GLOBAL| Basis set file name                                        BASIS_MOLOPT
 GLOBAL| Potential file name                                      GTH_POTENTIALS
 GLOBAL| MM Potential file name                                     MM_POTENTIAL
 GLOBAL| Coordinate file name                                          coord.xyz
 GLOBAL| Method name                                                        CP2K
 GLOBAL| Project name                                                       cp2k
 GLOBAL| Run type                                                   ENERGY_FORCE
 GLOBAL| FFT library                                                       FFTW3
 GLOBAL| Diagonalization library                                            ELPA
 GLOBAL| Minimum number of eigenvectors for ELPA usage                        16
 GLOBAL| Orthonormality check for eigenvectors                          DISABLED
 GLOBAL| Matrix multiplication library                                     COSMA
 GLOBAL| All-to-all communication in single precision                          F
 GLOBAL| FFTs using library dependent lengths                                  T
 GLOBAL| Grid backend                                                       AUTO
 GLOBAL| Global print level                                               MEDIUM
 GLOBAL| MPI I/O enabled                                                       T
 GLOBAL| Total number of message passing processes                           128
 GLOBAL| Number of threads for this process                                    1
 GLOBAL| This output is from process                                           0
 GLOBAL| Stack size for threads created by OpenMP (OMP_STACKSIZE)        default
 GLOBAL| CPU model name                 Intel(R) Xeon(R) Gold 6338 CPU @ 2.00GHz
 GLOBAL| CPUID                                                              1003

 MEMORY| system memory details [Kb]
 MEMORY|                        rank 0           min           max       average
 MEMORY| MemTotal            263619172     263619172     263619172     263619172
 MEMORY| MemFree             202036020     189779324     202036764     195908099
 MEMORY| Buffers                  3320            20          3320          1670
 MEMORY| Cached                1174044        909920       1174044       1041977
 MEMORY| Slab                  1879028       1879028       2079644       1979336
 MEMORY| SReclaimable           280596        236044        280596        258320
 MEMORY| MemLikelyFree       203493980     190925308     203494676     197210066


 *** Fundamental physical constants (SI units) ***

 *** Literature: B. J. Mohr and B. N. Taylor,
 ***             CODATA recommended values of the fundamental physical
 ***             constants: 2006, Web Version 5.1
 ***             http://physics.nist.gov/constants

 Speed of light in vacuum [m/s]                             2.99792458000000E+08
 Magnetic constant or permeability of vacuum [N/A**2]       1.25663706143592E-06
 Electric constant or permittivity of vacuum [F/m]          8.85418781762039E-12
 Planck constant (h) [J*s]                                  6.62606896000000E-34
 Planck constant (h-bar) [J*s]                              1.05457162825177E-34
 Elementary charge [C]                                      1.60217648700000E-19
 Electron mass [kg]                                         9.10938215000000E-31
 Electron g factor [ ]                                     -2.00231930436220E+00
 Proton mass [kg]                                           1.67262163700000E-27
 Fine-structure constant                                    7.29735253760000E-03
 Rydberg constant [1/m]                                     1.09737315685270E+07
 Avogadro constant [1/mol]                                  6.02214179000000E+23
 Boltzmann constant [J/K]                                   1.38065040000000E-23
 Atomic mass unit [kg]                                      1.66053878200000E-27
 Bohr radius [m]                                            5.29177208590000E-11

 *** Conversion factors ***

 [u] -> [a.u.]                                              1.82288848426455E+03
 [Angstrom] -> [Bohr] = [a.u.]                              1.88972613288564E+00
 [a.u.] = [Bohr] -> [Angstrom]                              5.29177208590000E-01
 [a.u.] -> [s]                                              2.41888432650478E-17
 [a.u.] -> [fs]                                             2.41888432650478E-02
 [a.u.] -> [J]                                              4.35974393937059E-18
 [a.u.] -> [N]                                              8.23872205491840E-08
 [a.u.] -> [K]                                              3.15774647902944E+05
 [a.u.] -> [kJ/mol]                                         2.62549961709828E+03
 [a.u.] -> [kcal/mol]                                       6.27509468713739E+02
 [a.u.] -> [Pa]                                             2.94210107994716E+13
 [a.u.] -> [bar]                                            2.94210107994716E+08
 [a.u.] -> [atm]                                            2.90362800883016E+08
 [a.u.] -> [eV]                                             2.72113838565563E+01
 [a.u.] -> [Hz]                                             6.57968392072181E+15
 [a.u.] -> [1/cm] (wave numbers)                            2.19474631370540E+05
 [a.u./Bohr**2] -> [1/cm]                                   5.14048714338585E+03
 

 CELL_TOP| Volume [angstrom^3]:                                     17614.982639
 CELL_TOP| Vector a [angstrom    16.869     0.000     0.000   |a| =    16.869000
 CELL_TOP| Vector b [angstrom    -8.434    14.609     0.000   |b| =    16.869015
 CELL_TOP| Vector c [angstrom     0.000     0.000    71.478   |c| =    71.478000
 CELL_TOP| Angle (b,c), alpha [degree]:                                90.000000
 CELL_TOP| Angle (a,c), beta  [degree]:                                90.000000
 CELL_TOP| Angle (a,b), gamma [degree]:                               119.999970
 CELL_TOP| Numerically orthorhombic:                                          NO
 
 GENERATE|  Preliminary Number of Bonds generated:                             0
 GENERATE|  Achieved consistency in connectivity generation.

 CELL| Volume [angstrom^3]:                                         17614.982639
 CELL| Vector a [angstrom]:      16.869     0.000     0.000   |a| =    16.869000
 CELL| Vector b [angstrom]:      -8.434    14.609     0.000   |b| =    16.869015
 CELL| Vector c [angstrom]:       0.000     0.000    71.478   |c| =    71.478000
 CELL| Angle (b,c), alpha [degree]:                                    90.000000
 CELL| Angle (a,c), beta  [degree]:                                    90.000000
 CELL| Angle (a,b), gamma [degree]:                                   119.999970
 CELL| Numerically orthorhombic:                                              NO

 CELL_REF| Volume [angstrom^3]:                                     17614.982639
 CELL_REF| Vector a [angstrom    16.869     0.000     0.000   |a| =    16.869000
 CELL_REF| Vector b [angstrom    -8.434    14.609     0.000   |b| =    16.869015
 CELL_REF| Vector c [angstrom     0.000     0.000    71.478   |c| =    71.478000
 CELL_REF| Angle (b,c), alpha [degree]:                                90.000000
 CELL_REF| Angle (a,c), beta  [degree]:                                90.000000
 CELL_REF| Angle (a,b), gamma [degree]:                               119.999970
 CELL_REF| Numerically orthorhombic:                                          NO

 *******************************************************************************
 *******************************************************************************
 **                                                                           **
 **     #####                         ##              ##                      **
 **    ##   ##            ##          ##              ##                      **
 **   ##     ##                       ##            ######                    **
 **   ##     ##  ##   ##  ##   #####  ##  ##   ####   ##    #####    #####    **
 **   ##     ##  ##   ##  ##  ##      ## ##   ##      ##   ##   ##  ##   ##   **
 **   ##  ## ##  ##   ##  ##  ##      ####     ###    ##   ######   ######    **
 **    ##  ###   ##   ##  ##  ##      ## ##      ##   ##   ##       ##        **
 **     #######   #####   ##   #####  ##  ##  ####    ##    #####   ##        **
 **           ##                                                    ##        **
 **                                                                           **
 **                                                ... make the atoms dance   **
 **                                                                           **
 **            Copyright (C) by CP2K developers group (2000-2022)             **
 **                      J. Chem. Phys. 152, 194103 (2020)                    **
 **                                                                           **
 *******************************************************************************

 DFT| Spin restricted Kohn-Sham (RKS) calculation                            RKS
 DFT| Multiplicity                                                             1
 DFT| Number of spin states                                                    1
 DFT| Charge                                                                   0
 DFT| Self-interaction correction (SIC)                                       NO
 DFT| Cutoffs: density                                              1.000000E-10
 DFT|          gradient                                             1.000000E-10
 DFT|          tau                                                  1.000000E-10
 DFT|          cutoff_smoothing_range                               0.000000E+00
 DFT| XC density smoothing                                                  NONE
 DFT| XC derivatives                                                          PW

 FUNCTIONAL| PBE:
 FUNCTIONAL| J.P.Perdew, K.Burke, M.Ernzerhof, Phys. Rev. Letter, vol. 77, n 18,
 FUNCTIONAL|  pp. 3865-3868, (1996){spin unpolarized}                           

 vdW POTENTIAL|                                                   Pair Potential
 vdW POTENTIAL|          DFT-D3 (Version 3.1)
 vdW POTENTIAL|          Potential Form: S. Grimme et al, JCP 132: 154104 (2010)
 vdW POTENTIAL|          Zero Damping
 vdW POTENTIAL|          Cutoff Radius [Bohr]:                             20.00
 vdW POTENTIAL|          s6 Scaling Factor:                               1.0000
 vdW POTENTIAL|          sr6 Scaling Factor:                              1.2170
 vdW POTENTIAL|          s8 Scaling Factor:                               0.7220
 vdW POTENTIAL|          Cutoff for CN calculation:                   0.1000E-05

 QS| Method:                                                                 GPW
 QS| Density plane wave grid type                        NON-SPHERICAL FULLSPACE
 QS| Number of grid levels:                                                    4
 QS| Density cutoff [a.u.]:                                                200.0
 QS| Multi grid cutoff [a.u.]: 1) grid level                               200.0
 QS|                           2) grid level                                66.7
 QS|                           3) grid level                                22.2
 QS|                           4) grid level                                 7.4
 QS| Grid level progression factor:                                          3.0
 QS| Relative density cutoff [a.u.]:                                        20.0
 QS| Interaction thresholds: eps_pgf_orb:                                3.2E-07
 QS|                         eps_filter_matrix:                          0.0E+00
 QS|                         eps_core_charge:                            1.0E-15
 QS|                         eps_rho_gspace:                             1.0E-13
 QS|                         eps_rho_rspace:                             1.0E-13
 QS|                         eps_gvg_rspace:                             3.2E-07
 QS|                         eps_ppl:                                    1.0E-02
 QS|                         eps_ppnl:                                   3.2E-09


 ATOMIC KIND INFORMATION

  1. Atomic kind: O                                     Number of atoms:      99

     Orbital Basis Set                                        DZVP-MOLOPT-SR-GTH

       Number of orbital shell sets:                                           1
       Number of orbital shells:                                               5
       Number of primitive Cartesian functions:                                5
       Number of Cartesian basis functions:                                   14
       Number of spherical basis functions:                                   13
       Norm type:                                                              2

       Normalised Cartesian orbitals:

                        Set   Shell   Orbital            Exponent    Coefficient

                          1       1    2s               10.389228       0.396646
                                                         3.849621       0.208811
                                                         1.388401      -0.301641
                                                         0.496955      -0.274061
                                                         0.162492      -0.033677

                          1       2    3s               10.389228       0.303673
                                                         3.849621       0.240943
                                                         1.388401      -0.313066
                                                         0.496955      -0.043055
                                                         0.162492       0.213991

                          1       3    3px              10.389228      -1.530415
                                                         3.849621      -1.371928
                                                         1.388401      -0.761951
                                                         0.496955      -0.253695
                                                         0.162492      -0.035541
                          1       3    3py              10.389228      -1.530415
                                                         3.849621      -1.371928
                                                         1.388401      -0.761951
                                                         0.496955      -0.253695
                                                         0.162492      -0.035541
                          1       3    3pz              10.389228      -1.530415
                                                         3.849621      -1.371928
                                                         1.388401      -0.761951
                                                         0.496955      -0.253695
                                                         0.162492      -0.035541

                          1       4    4px              10.389228      -0.565392
                                                         3.849621      -0.038231
                                                         1.388401      -0.382373
                                                         0.496955       0.179070
                                                         0.162492       0.122714
                          1       4    4py              10.389228      -0.565392
                                                         3.849621      -0.038231
                                                         1.388401      -0.382373
                                                         0.496955       0.179070
                                                         0.162492       0.122714
                          1       4    4pz              10.389228      -0.565392
                                                         3.849621      -0.038231
                                                         1.388401      -0.382373
                                                         0.496955       0.179070
                                                         0.162492       0.122714

                          1       5    4dx2             10.389228       1.867377
                                                         3.849621       0.670994
                                                         1.388401       1.353441
                                                         0.496955       0.273538
                                                         0.162492       0.006620
                          1       5    4dxy             10.389228       3.234392
                                                         3.849621       1.162195
                                                         1.388401       2.344229
                                                         0.496955       0.473781
                                                         0.162492       0.011466
                          1       5    4dxz             10.389228       3.234392
                                                         3.849621       1.162195
                                                         1.388401       2.344229
                                                         0.496955       0.473781
                                                         0.162492       0.011466
                          1       5    4dy2             10.389228       1.867377
                                                         3.849621       0.670994
                                                         1.388401       1.353441
                                                         0.496955       0.273538
                                                         0.162492       0.006620
                          1       5    4dyz             10.389228       3.234392
                                                         3.849621       1.162195
                                                         1.388401       2.344229
                                                         0.496955       0.473781
                                                         0.162492       0.011466
                          1       5    4dz2             10.389228       1.867377
                                                         3.849621       0.670994
                                                         1.388401       1.353441
                                                         0.496955       0.273538
                                                         0.162492       0.006620

       Atomic covalent radius [Angstrom]:                                  0.730

       Atomic van der Waals radius [Angstrom]:                             1.520

     GTH Potential information for                                    GTH-PBE-q6

       Description:                       Goedecker-Teter-Hutter pseudopotential
                                           Goedecker et al., PRB 54, 1703 (1996)
                                          Hartwigsen et al., PRB 58, 3641 (1998)
                                                      Krack, TCA 114, 145 (2005)

       Gaussian exponent of the core charge distribution:               8.360253
       Electronic configuration (s p d ...):                               2   4

       Parameters of the local part of the GTH pseudopotential:

                          rloc        C1          C2          C3          C4
                        0.244554  -16.667215    2.487311

       Parameters of the non-local part of the GTH pseudopotential:

                   l      r(l)      h(i,j,l)

                   0    0.220956   18.337458
                   1    0.211332

  2. Atomic kind: H                                     Number of atoms:     198

     Orbital Basis Set                                        DZVP-MOLOPT-SR-GTH

       Number of orbital shell sets:                                           1
       Number of orbital shells:                                               3
       Number of primitive Cartesian functions:                                5
       Number of Cartesian basis functions:                                    5
       Number of spherical basis functions:                                    5
       Norm type:                                                              2

       Normalised Cartesian orbitals:

                        Set   Shell   Orbital            Exponent    Coefficient

                          1       1    2s               10.068468      -0.133023
                                                         2.680223      -0.177618
                                                         0.791502      -0.258419
                                                         0.239116      -0.107525
                                                         0.082193      -0.014019

                          1       2    3s               10.068468       0.344673
                                                         2.680223       1.819821
                                                         0.791502      -0.999069
                                                         0.239116       0.017430
                                                         0.082193       0.082660

                          1       3    3px              10.068468       0.155326
                                                         2.680223       0.367157
                                                         0.791502       0.311480
                                                         0.239116       0.080105
                                                         0.082193       0.033440
                          1       3    3py              10.068468       0.155326
                                                         2.680223       0.367157
                                                         0.791502       0.311480
                                                         0.239116       0.080105
                                                         0.082193       0.033440
                          1       3    3pz              10.068468       0.155326
                                                         2.680223       0.367157
                                                         0.791502       0.311480
                                                         0.239116       0.080105
                                                         0.082193       0.033440

       Atomic covalent radius [Angstrom]:                                  0.320

       Atomic van der Waals radius [Angstrom]:                             1.090

     GTH Potential information for                                    GTH-PBE-q1

       Description:                       Goedecker-Teter-Hutter pseudopotential
                                           Goedecker et al., PRB 54, 1703 (1996)
                                          Hartwigsen et al., PRB 58, 3641 (1998)
                                                      Krack, TCA 114, 145 (2005)

       Gaussian exponent of the core charge distribution:              12.500000
       Electronic configuration (s p d ...):                                   1

       Parameters of the local part of the GTH pseudopotential:

                          rloc        C1          C2          C3          C4
                        0.200000   -4.178900    0.724463

  3. Atomic kind: Pt                                    Number of atoms:     216

     Orbital Basis Set                      DZVP-A5-Q10-323-MOL-T1-DERIVED_SET-1

       Number of orbital shell sets:                                           1
       Number of orbital shells:                                               6
       Number of primitive Cartesian functions:                                5
       Number of Cartesian basis functions:                                   23
       Number of spherical basis functions:                                   20
       Norm type:                                                              2

       Normalised Cartesian orbitals:

                        Set   Shell   Orbital            Exponent    Coefficient

                          1       1    2s                2.521825       0.177473
                                                         1.453920      -0.063399
                                                         0.614053      -0.407089
                                                         0.232656       0.262254
                                                         0.074788       0.047371

                          1       2    3s                2.521825      -0.049056
                                                         1.453920       0.044904
                                                         0.614053      -0.009756
                                                         0.232656      -0.144709
                                                         0.074788       0.144085

                          1       3    3px               2.521825      -0.317572
                                                         1.453920       0.534826
                                                         0.614053      -0.489458
                                                         0.232656       0.245631
                                                         0.074788       0.018221
                          1       3    3py               2.521825      -0.317572
                                                         1.453920       0.534826
                                                         0.614053      -0.489458
                                                         0.232656       0.245631
                                                         0.074788       0.018221
                          1       3    3pz               2.521825      -0.317572
                                                         1.453920       0.534826
                                                         0.614053      -0.489458
                                                         0.232656       0.245631
                                                         0.074788       0.018221

                          1       4    4dx2              2.521825       3.008522
                                                         1.453920      -1.224251
                                                         0.614053       0.225691
                                                         0.232656       0.125144
                                                         0.074788      -0.015348
                          1       4    4dxy              2.521825       5.210912
                                                         1.453920      -2.120465
                                                         0.614053       0.390909
                                                         0.232656       0.216756
                                                         0.074788      -0.026584
                          1       4    4dxz              2.521825       5.210912
                                                         1.453920      -2.120465
                                                         0.614053       0.390909
                                                         0.232656       0.216756
                                                         0.074788      -0.026584
                          1       4    4dy2              2.521825       3.008522
                                                         1.453920      -1.224251
                                                         0.614053       0.225691
                                                         0.232656       0.125144
                                                         0.074788      -0.015348
                          1       4    4dyz              2.521825       5.210912
                                                         1.453920      -2.120465
                                                         0.614053       0.390909
                                                         0.232656       0.216756
                                                         0.074788      -0.026584
                          1       4    4dz2              2.521825       3.008522
                                                         1.453920      -1.224251
                                                         0.614053       0.225691
                                                         0.232656       0.125144
                                                         0.074788      -0.015348

                          1       5    5dx2              2.521825       0.698026
                                                         1.453920      -1.511486
                                                         0.614053      -0.335394
                                                         0.232656      -0.025564
                                                         0.074788      -0.002699
                          1       5    5dxy              2.521825       1.209017
                                                         1.453920      -2.617970
                                                         0.614053      -0.580920
                                                         0.232656      -0.044277
                                                         0.074788      -0.004674
                          1       5    5dxz              2.521825       1.209017
                                                         1.453920      -2.617970
                                                         0.614053      -0.580920
                                                         0.232656      -0.044277
                                                         0.074788      -0.004674
                          1       5    5dy2              2.521825       0.698026
                                                         1.453920      -1.511486
                                                         0.614053      -0.335394
                                                         0.232656      -0.025564
                                                         0.074788      -0.002699
                          1       5    5dyz              2.521825       1.209017
                                                         1.453920      -2.617970
                                                         0.614053      -0.580920
                                                         0.232656      -0.044277
                                                         0.074788      -0.004674
                          1       5    5dz2              2.521825       0.698026
                                                         1.453920      -1.511486
                                                         0.614053      -0.335394
                                                         0.232656      -0.025564
                                                         0.074788      -0.002699

                          1       6    6dx2              2.521825       0.831079
                                                         1.453920      -0.709226
                                                         0.614053      -0.137351
                                                         0.232656       0.068642
                                                         0.074788       0.011745
                          1       6    6dxy              2.521825       1.439472
                                                         1.453920      -1.228415
                                                         0.614053      -0.237899
                                                         0.232656       0.118891
                                                         0.074788       0.020343
                          1       6    6dxz              2.521825       1.439472
                                                         1.453920      -1.228415
                                                         0.614053      -0.237899
                                                         0.232656       0.118891
                                                         0.074788       0.020343
                          1       6    6dy2              2.521825       0.831079
                                                         1.453920      -0.709226
                                                         0.614053      -0.137351
                                                         0.232656       0.068642
                                                         0.074788       0.011745
                          1       6    6dyz              2.521825       1.439472
                                                         1.453920      -1.228415
                                                         0.614053      -0.237899
                                                         0.232656       0.118891
                                                         0.074788       0.020343
                          1       6    6dz2              2.521825       0.831079
                                                         1.453920      -0.709226
                                                         0.614053      -0.137351
                                                         0.232656       0.068642
                                                         0.074788       0.011745

       Atomic covalent radius [Angstrom]:                                  1.300

       Atomic van der Waals radius [Angstrom]:                             1.750

     GTH Potential information for                                   GTH-PBE-q10

       Description:                       Goedecker-Teter-Hutter pseudopotential
                                           Goedecker et al., PRB 54, 1703 (1996)
                                          Hartwigsen et al., PRB 58, 3641 (1998)
                                                      Krack, TCA 114, 145 (2005)

       Gaussian exponent of the core charge distribution:               1.317676
       Electronic configuration (s p d ...):                           1   0   9

       Parameters of the local part of the GTH pseudopotential:

                          rloc        C1          C2          C3          C4
                        0.616000   11.313635

       Parameters of the non-local part of the GTH pseudopotential:

                   l      r(l)      h(i,j,l)

                   0    0.550904    4.733491   -1.784594
                                   -1.784594    2.303901
                   1    0.674138    2.534798   -1.778066
                                   -1.778066    2.103836
                   2    0.457392   -7.264011    2.558665
                                    2.558665   -2.901253


 MOLECULE KIND INFORMATION


 All atoms are their own molecule, skipping detailed information


 TOTAL NUMBERS AND MAXIMUM NUMBERS

  Total number of            - Atomic kinds:                                   3
                             - Atoms:                                        513
                             - Shell sets:                                   513
                             - Shells:                                      2385
                             - Primitive Cartesian functions:               2565
                             - Cartesian basis functions:                   7344
                             - Spherical basis functions:                   6597

  Maximum angular momentum of- Orbital basis functions:                        2
                             - Local part of the GTH pseudopotential:          2
                             - Non-local part of the GTH pseudopotential:      4


 MODULE QUICKSTEP:  ATOMIC COORDINATES IN angstrom

 Atom  Kind  Element       X           Y           Z          Z(eff)       Mass
    1   1 O    8       0.830000    2.420000   36.767998       6.0000     15.9994
    2   2 H    1       1.510000    2.220000   36.088000       1.0000      1.0079
    3   2 H    1       0.890000    3.350000   36.987999       1.0000      1.0079
    4   1 O    8       4.780000    1.560000   30.517998       6.0000     15.9994
    5   2 H    1       4.110000    2.320000   30.598000       1.0000      1.0079
    6   2 H    1       4.990000    1.300000   31.467999       1.0000      1.0079
    7   1 O    8       3.720000    8.790001   30.127999       6.0000     15.9994
    8   2 H    1       3.970000    9.640000   30.687998       1.0000      1.0079
    9   2 H    1       3.030000    9.140000   29.497998       1.0000      1.0079
   10   1 O    8      -8.620001   -3.720000   37.338000       6.0000     15.9994
   11   2 H    1      -8.190001   -2.930000   37.737999       1.0000      1.0079
   12   2 H    1      -9.540001   -3.500000   36.997998       1.0000      1.0079
   13   1 O    8       7.880001    3.000000   32.817997       6.0000     15.9994
   14   2 H    1       7.910000    2.930000   31.827999       1.0000      1.0079
   15   2 H    1       8.710001    3.400000   33.177998       1.0000      1.0079
   16   1 O    8     -18.560001   25.470001   35.237999       6.0000     15.9994
   17   2 H    1     -19.030001   24.680002   34.877999       1.0000      1.0079
   18   2 H    1      -0.810000   25.500002   34.868000       1.0000      1.0079
   19   1 O    8     -13.250000   13.090000   35.617998       6.0000     15.9994
   20   2 H    1     -13.440001   13.890000   35.057999       1.0000      1.0079
   21   2 H    1     -13.490001   12.330000   35.077999       1.0000      1.0079
   22   1 O    8       0.070000    4.040000   39.698000       6.0000     15.9994
   23   2 H    1       0.750000    4.440001   40.277998       1.0000      1.0079
   24   2 H    1      -0.890000    4.220000   39.928000       1.0000      1.0079
   25   1 O    8      -4.750000    2.520000   32.508000       6.0000     15.9994
   26   2 H    1      -5.170000    2.330000   31.637997       1.0000      1.0079
   27   2 H    1      -4.220000    3.370000   32.537999       1.0000      1.0079
   28   1 O    8     -10.820000   -0.530000   37.987997       6.0000     15.9994
   29   2 H    1     -10.170001    0.160000   37.668000       1.0000      1.0079
   30   2 H    1     -11.640000   -0.250000   37.567999       1.0000      1.0079
   31   1 O    8       5.880000    8.130000   28.997998       6.0000     15.9994
   32   2 H    1       6.120000    7.240000   29.377999       1.0000      1.0079
   33   2 H    1       4.870000    8.250000   29.327999       1.0000      1.0079
   34   1 O    8       1.830000   -4.340000   30.037999       6.0000     15.9994
   35   2 H    1       2.400000   -4.790000   29.377999       1.0000      1.0079
   36   2 H    1       2.460000   -3.950000   30.668000       1.0000      1.0079
   37   1 O    8      -5.990000    5.740000   36.548001       6.0000     15.9994
   38   2 H    1      -6.340000    4.810000   36.588000       1.0000      1.0079
   39   2 H    1      -6.710000    6.350000   36.848000       1.0000      1.0079
   40   1 O    8     -13.060001    4.070000   37.587998       6.0000     15.9994
   41   2 H    1     -20.559999   18.520000   37.338000       1.0000      1.0079
   42   2 H    1     -12.970000    4.730000   38.267998       1.0000      1.0079
   43   1 O    8       6.710000   -1.840000   30.187996       6.0000     15.9994
   44   2 H    1       5.710001   -1.760000   30.278000       1.0000      1.0079
   45   2 H    1       7.010000   -2.020000   31.077998       1.0000      1.0079
   46   1 O    8     -16.280001   19.150002   39.827998       6.0000     15.9994
   47   2 H    1     -15.600000   19.860001   39.617998       1.0000      1.0079
   48   2 H    1     -17.050001   19.580000   40.217999       1.0000      1.0079
   49   1 O    8      -2.910000    0.820000   39.698000       6.0000     15.9994
   50   2 H    1      -1.940000    1.150000   39.757998       1.0000      1.0079
   51   2 H    1      -2.970000   -0.110000   39.147999       1.0000      1.0079
   52   1 O    8      -1.800000    2.490000   35.967999       6.0000     15.9994
   53   2 H    1      -0.940000    2.550000   36.337998       1.0000      1.0079
   54   2 H    1      -1.640000    3.090000   35.228001       1.0000      1.0079
   55   1 O    8      16.090000   -4.200000   29.977997       6.0000     15.9994
   56   2 H    1      15.450001   -4.880000   29.697998       1.0000      1.0079
   57   2 H    1      16.930000   -4.650001   30.127999       1.0000      1.0079
   58   1 O    8      -5.590000   -4.240000   38.567999       6.0000     15.9994
   59   2 H    1      -4.810000   -3.810000   38.197998       1.0000      1.0079
   60   2 H    1      -5.250000   -4.980001   39.118000       1.0000      1.0079
   61   1 O    8       9.980000    2.180000   39.727997       6.0000     15.9994
   62   2 H    1       9.430000    1.510000   40.087998       1.0000      1.0079
   63   2 H    1       9.580001    3.070000   39.868000       1.0000      1.0079
   64   1 O    8     -22.820000   17.770000   31.237999       6.0000     15.9994
   65   2 H    1      -6.520000   17.940001   32.057999       1.0000      1.0079
   66   2 H    1      -5.740000   18.640001   30.657999       1.0000      1.0079
   67   1 O    8       3.590000   11.300000   31.767998       6.0000     15.9994
   68   2 H    1       4.300000   11.860001   31.317999       1.0000      1.0079
   69   2 H    1       3.700000   11.210001   32.777998       1.0000      1.0079
   70   1 O    8      -5.570001    2.930000   29.918000       6.0000     15.9994
   71   2 H    1      -5.970000    2.060000   29.708001       1.0000      1.0079
   72   2 H    1      -4.650001    2.990000   29.587998       1.0000      1.0079
   73   1 O    8       8.410000    7.540000   34.527998       6.0000     15.9994
   74   2 H    1       8.770000    7.940001   35.368000       1.0000      1.0079
   75   2 H    1       8.290001    6.600000   34.697998       1.0000      1.0079
   76   1 O    8      -2.610000   11.740000   36.267998       6.0000     15.9994
   77   2 H    1      -2.560000   12.500000   36.947998       1.0000      1.0079
   78   2 H    1      -3.270000   11.090001   36.618000       1.0000      1.0079
   79   1 O    8      -3.490000    4.970000   32.787999       6.0000     15.9994
   80   2 H    1      -4.160000    5.560000   33.247998       1.0000      1.0079
   81   2 H    1      -3.530000    5.300000   31.797999       1.0000      1.0079
   82   1 O    8      -9.230001    0.620000   29.237999       6.0000     15.9994
   83   2 H    1      -8.300000    0.300000   29.297997       1.0000      1.0079
   84   2 H    1      -9.780001   -0.120000   29.528000       1.0000      1.0079
   85   1 O    8      -4.380000   16.520000   39.077999       6.0000     15.9994
   86   2 H    1      -4.640000   17.320002   38.607998       1.0000      1.0079
   87   2 H    1      -4.810000   15.770000   38.627999       1.0000      1.0079
   88   1 O    8       0.850000   -1.820000   37.477999       6.0000     15.9994
   89   2 H    1       0.590000   -1.520000   38.388001       1.0000      1.0079
   90   2 H    1       0.350000   -1.380000   36.737997       1.0000      1.0079
   91   1 O    8      -5.390000    6.350000   34.077999       6.0000     15.9994
   92   2 H    1      -5.420001    7.320001   34.157999       1.0000      1.0079
   93   2 H    1      -5.590000    6.010000   35.008000       1.0000      1.0079
   94   1 O    8      -1.020000   10.500001   29.327999       6.0000     15.9994
   95   2 H    1      -1.730000    9.870001   29.567997       1.0000      1.0079
   96   2 H    1      -1.280000   11.400002   29.727997       1.0000      1.0079
   97   1 O    8      -3.000000    8.960000   30.287999       6.0000     15.9994
   98   2 H    1      -3.710000    8.730000   29.677998       1.0000      1.0079
   99   2 H    1      -3.470000    9.350000   31.088000       1.0000      1.0079
  100   1 O    8     -10.500001    7.650001   38.428000       6.0000     15.9994
  101   2 H    1     -10.610001    6.990001   39.167998       1.0000      1.0079
  102   2 H    1     -11.140001    7.400000   37.728001       1.0000      1.0079
  103   1 O    8      10.100000   -4.320000   29.318001       6.0000     15.9994
  104   2 H    1       1.710000   11.080000   29.877999       1.0000      1.0079
  105   2 H    1       9.150001   -4.670000   29.337998       1.0000      1.0079
  106   1 O    8       2.730000   15.750000   34.627999       6.0000     15.9994
  107   2 H    1       2.590000   16.450001   35.317997       1.0000      1.0079
  108   2 H    1       3.110000   16.270000   33.857998       1.0000      1.0079
  109   1 O    8      -2.620000   -4.010000   38.008000       6.0000     15.9994
  110   2 H    1      -2.260000   -4.000000   37.097998       1.0000      1.0079
  111   2 H    1      -2.620000   -4.960000   38.247998       1.0000      1.0079
  112   1 O    8      -9.400001    4.810000   35.017998       6.0000     15.9994
  113   2 H    1      -9.350000    4.340000   35.937998       1.0000      1.0079
  114   2 H    1     -10.210000    4.400000   34.627999       1.0000      1.0079
  115   1 O    8      -1.250000    7.370000   35.977997       6.0000     15.9994
  116   2 H    1      -0.730000    7.610001   36.787999       1.0000      1.0079
  117   2 H    1      -2.120000    7.370000   36.397999       1.0000      1.0079
  118   1 O    8      -7.240000    6.870000   31.937998       6.0000     15.9994
  119   2 H    1      -6.840000    6.050000   31.457999       1.0000      1.0079
  120   2 H    1      -7.130001    6.760001   32.897999       1.0000      1.0079
  121   1 O    8      14.760000    1.300000   32.677998       6.0000     15.9994
  122   2 H    1      13.900002    1.700000   32.557999       1.0000      1.0079
  123   2 H    1      14.710001    0.390000   32.967999       1.0000      1.0079
  124   1 O    8      -0.640000    4.340000   30.208001       6.0000     15.9994
  125   2 H    1       0.040000    4.610000   29.548001       1.0000      1.0079
  126   2 H    1      -0.310000    3.890000   31.057999       1.0000      1.0079
  127   1 O    8      -0.260000    1.370000   39.307999       6.0000     15.9994
  128   2 H    1      -0.080000    2.290000   39.708000       1.0000      1.0079
  129   2 H    1      -0.120000    1.490000   38.367998       1.0000      1.0079
  130   1 O    8      -8.620001   22.940002   33.697998       6.0000     15.9994
  131   2 H    1      -8.940001   22.540001   32.847998       1.0000      1.0079
  132   2 H    1      -8.950001   22.460001   34.467999       1.0000      1.0079
  133   1 O    8      -2.980000   12.470001   33.347998       6.0000     15.9994
  134   2 H    1      -1.940000   12.590000   33.168000       1.0000      1.0079
  135   2 H    1      -2.860000   12.150001   34.297999       1.0000      1.0079
  136   1 O    8       6.930000    8.370000   32.167998       6.0000     15.9994
  137   2 H    1       7.750000    7.920001   32.407999       1.0000      1.0079
  138   2 H    1       6.530001    7.740001   31.548001       1.0000      1.0079
  139   1 O    8      -3.920000    5.480001   30.177998       6.0000     15.9994
  140   2 H    1      -4.520000    6.240000   30.237999       1.0000      1.0079
  141   2 H    1      -3.310000    5.830000   29.407997       1.0000      1.0079
  142   1 O    8      -2.630000    3.130000   29.087998       6.0000     15.9994
  143   2 H    1      -2.070000    3.840000   29.487999       1.0000      1.0079
  144   2 H    1      -2.010000    2.300000   29.227997       1.0000      1.0079
  145   1 O    8       4.260000    5.620000   39.798001       6.0000     15.9994
  146   2 H    1      12.180000   -9.600000   40.407999       1.0000      1.0079
  147   2 H    1     -13.020000    6.520000   39.848000       1.0000      1.0079
  148   1 O    8       1.430000   19.720001   29.737999       6.0000     15.9994
  149   2 H    1       0.740000   19.730000   29.077996       1.0000      1.0079
  150   2 H    1       1.890000   18.830002   29.697998       1.0000      1.0079
  151   1 O    8       6.230001    5.960000   30.477997       6.0000     15.9994
  152   2 H    1       6.760001    5.100000   30.498001       1.0000      1.0079
  153   2 H    1       5.240001    5.740000   30.528000       1.0000      1.0079
  154   1 O    8     -14.090000    1.670000   35.307999       6.0000     15.9994
  155   2 H    1     -14.580001    1.210000   34.557999       1.0000      1.0079
  156   2 H    1     -13.500000    2.400000   34.977999       1.0000      1.0079
  157   1 O    8      -3.840000   14.960001   32.997999       6.0000     15.9994
  158   2 H    1      -4.770000   15.070001   33.017998       1.0000      1.0079
  159   2 H    1      -3.650000   13.950001   33.047999       1.0000      1.0079
  160   1 O    8       0.830000   -3.920000   33.317997       6.0000     15.9994
  161   2 H    1       1.290000   -3.570000   32.527998       1.0000      1.0079
  162   2 H    1       0.230000   -4.540000   32.868000       1.0000      1.0079
  163   1 O    8      -0.590000   15.570001   36.817999       6.0000     15.9994
  164   2 H    1       8.220000    0.060000   36.518000       1.0000      1.0079
  165   2 H    1      -1.090000   15.810001   36.037999       1.0000      1.0079
  166   1 O    8      -5.480001    9.030001   34.447998       6.0000     15.9994
  167   2 H    1      -5.060000    9.560000   35.187998       1.0000      1.0079
  168   2 H    1      -6.290000    9.540001   34.157999       1.0000      1.0079
  169   1 O    8       0.500000   10.610001   34.597998       6.0000     15.9994
  170   2 H    1       0.280000   10.620001   35.587998       1.0000      1.0079
  171   2 H    1       0.170000    9.670001   34.217999       1.0000      1.0079
  172   1 O    8       2.000000   14.820002   29.697998       6.0000     15.9994
  173   2 H    1       2.240000   14.450001   28.807999       1.0000      1.0079
  174   2 H    1      10.440001   -0.680000   30.168000       1.0000      1.0079
  175   1 O    8       7.410001   21.720001   31.427998       6.0000     15.9994
  176   2 H    1       6.550000   22.130001   31.168000       1.0000      1.0079
  177   2 H    1       7.260000   20.790001   31.567997       1.0000      1.0079
  178   1 O    8     -15.220001   12.490001   30.827999       6.0000     15.9994
  179   2 H    1     -15.890001   12.530001   31.597998       1.0000      1.0079
  180   2 H    1     -14.410001   12.020000   31.287999       1.0000      1.0079
  181   1 O    8       1.990000   -4.200000   38.477997       6.0000     15.9994
  182   2 H    1       1.620000   -3.460000   37.877999       1.0000      1.0079
  183   2 H    1       2.650000   -3.700000   39.118000       1.0000      1.0079
  184   1 O    8       0.250000   14.940001   33.797999       6.0000     15.9994
  185   2 H    1      -0.160000   15.830001   33.588000       1.0000      1.0079
  186   2 H    1       1.200000   15.130001   34.097998       1.0000      1.0079
  187   1 O    8       6.960001    3.170000   30.327996       6.0000     15.9994
  188   2 H    1       7.580000    2.880000   29.657997       1.0000      1.0079
  189   2 H    1       6.200000    2.550000   30.287999       1.0000      1.0079
  190   1 O    8      12.650002   10.340000   32.008000       6.0000     15.9994
  191   2 H    1      13.060001   11.180000   32.257998       1.0000      1.0079
  192   2 H    1      -4.670000   10.040001   32.787999       1.0000      1.0079
  193   1 O    8     -14.640001    5.530000   34.107998       6.0000     15.9994
  194   2 H    1     -14.650001    6.450000   33.627999       1.0000      1.0079
  195   2 H    1     -15.060000    5.630000   34.947998       1.0000      1.0079
  196   1 O    8       2.760000    7.700000   32.727997       6.0000     15.9994
  197   2 H    1       3.660000    7.760000   33.087998       1.0000      1.0079
  198   2 H    1       2.840000    7.770000   31.767998       1.0000      1.0079
  199   1 O    8       8.400001   17.670000   32.587998       6.0000     15.9994
  200   2 H    1       8.180000   18.340000   33.317997       1.0000      1.0079
  201   2 H    1       7.870001   16.860001   32.798001       1.0000      1.0079
  202   1 O    8       2.580000    6.960001   36.967999       6.0000     15.9994
  203   2 H    1       2.100000    7.830000   37.068001       1.0000      1.0079
  204   2 H    1       1.810000    6.330000   37.087998       1.0000      1.0079
  205   1 O    8      13.530001   21.560001   36.157999       6.0000     15.9994
  206   2 H    1      13.900002   20.810001   35.647999       1.0000      1.0079
  207   2 H    1      12.560000   21.510000   36.327999       1.0000      1.0079
  208   1 O    8      -1.600000    0.960000   29.967999       6.0000     15.9994
  209   2 H    1     -10.330000   15.710001   30.858000       1.0000      1.0079
  210   2 H    1      -0.550000    0.840000   30.008000       1.0000      1.0079
  211   1 O    8      -1.100000   -0.550000   35.737999       6.0000     15.9994
  212   2 H    1      -9.910001   14.960001   35.867998       1.0000      1.0079
  213   2 H    1     -10.290001   13.530001   36.067999       1.0000      1.0079
  214   1 O    8       5.270000    8.800000   33.978001       6.0000     15.9994
  215   2 H    1       5.320000    8.110001   34.697998       1.0000      1.0079
  216   2 H    1       5.920000    8.730000   33.197998       1.0000      1.0079
  217   1 O    8      -6.520000    6.810000   39.608000       6.0000     15.9994
  218   2 H    1      -7.210000    7.320001   40.237999       1.0000      1.0079
  219   2 H    1      -6.880000    7.130001   38.717999       1.0000      1.0079
  220   1 O    8       4.080000    3.530000   33.897999       6.0000     15.9994
  221   2 H    1       4.180000    3.460000   32.938000       1.0000      1.0079
  222   2 H    1       3.380000    4.240000   33.837998       1.0000      1.0079
  223   1 O    8       1.270000    7.170000   30.087998       6.0000     15.9994
  224   2 H    1       1.050000    7.210000   29.107998       1.0000      1.0079
  225   2 H    1       0.320000    7.190001   30.447998       1.0000      1.0079
  226   1 O    8      -3.550000   -1.500000   29.977997       6.0000     15.9994
  227   2 H    1      -2.820000   -0.910000   29.817997       1.0000      1.0079
  228   2 H    1      -4.200000   -1.400000   29.248001       1.0000      1.0079
  229   1 O    8      -5.500000    7.570000   29.977997       6.0000     15.9994
  230   2 H    1      -6.120000    7.460001   30.727999       1.0000      1.0079
  231   2 H    1      -5.970000    7.260000   29.147999       1.0000      1.0079
  232   1 O    8      -6.130000    3.080000   36.927998       6.0000     15.9994
  233   2 H    1      -6.650000    2.500000   37.547999       1.0000      1.0079
  234   2 H    1      -5.280000    3.100000   37.427998       1.0000      1.0079
  235   1 O    8     -10.940001    1.640000   35.087998       6.0000     15.9994
  236   2 H    1     -10.650001    2.220000   34.317999       1.0000      1.0079
  237   2 H    1     -11.360001    1.000000   34.447998       1.0000      1.0079
  238   1 O    8      18.050001    0.340000   33.458000       6.0000     15.9994
  239   2 H    1      17.130001    0.170000   33.817999       1.0000      1.0079
  240   2 H    1      18.110001   -0.370000   32.757998       1.0000      1.0079
  241   1 O    8      -1.170000    4.870000   34.438000       6.0000     15.9994
  242   2 H    1      -1.230000    5.580000   35.047999       1.0000      1.0079
  243   2 H    1      -2.000000    4.970000   33.937998       1.0000      1.0079
  244   1 O    8      -5.270000   -3.700000   34.258000       6.0000     15.9994
  245   2 H    1      -4.820000   -4.490000   34.617998       1.0000      1.0079
  246   2 H    1      -6.230001   -3.910000   34.297999       1.0000      1.0079
  247   1 O    8      -7.800000    7.770000   37.447998       6.0000     15.9994
  248   2 H    1      -7.500000    8.680000   37.768000       1.0000      1.0079
  249   2 H    1      -8.680000    7.570000   37.827999       1.0000      1.0079
  250   1 O    8     -16.300001    5.030000   37.377999       6.0000     15.9994
  251   2 H    1     -17.060001    5.230000   36.747999       1.0000      1.0079
  252   2 H    1     -16.730001    4.740000   38.188000       1.0000      1.0079
  253   1 O    8      -9.620001    3.840000   37.657997       6.0000     15.9994
  254   2 H    1      -9.620001    2.860000   37.687998       1.0000      1.0079
  255   2 H    1      -8.990001    4.130000   38.347998       1.0000      1.0079
  256   1 O    8      -4.280000   13.390001   30.097996       6.0000     15.9994
  257   2 H    1      -4.580000   13.000001   29.278000       1.0000      1.0079
  258   2 H    1      -4.440001   14.300001   29.947998       1.0000      1.0079
  259   1 O    8       1.290000   13.280001   37.567999       6.0000     15.9994
  260   2 H    1       1.850000   13.130001   36.717999       1.0000      1.0079
  261   2 H    1       1.680000   13.970001   38.088000       1.0000      1.0079
  262   1 O    8      -8.710001   -2.040000   32.967999       6.0000     15.9994
  263   2 H    1      -8.400001   -2.850000   33.557999       1.0000      1.0079
  264   2 H    1      -8.400001   -1.170000   33.358000       1.0000      1.0079
  265   1 O    8     -11.380000   13.410001   37.668000       6.0000     15.9994
  266   2 H    1     -11.010000   12.550001   37.977999       1.0000      1.0079
  267   2 H    1     -12.060001   13.270000   36.977999       1.0000      1.0079
  268   1 O    8      -6.730001   13.090000   31.588000       6.0000     15.9994
  269   2 H    1      -7.410001   12.980001   30.928000       1.0000      1.0079
  270   2 H    1      -5.990000   13.370000   31.107998       1.0000      1.0079
  271   1 O    8      -4.950000   20.010002   29.907997       6.0000     15.9994
  272   2 H    1      -4.660000   19.940001   28.977997       1.0000      1.0079
  273   2 H    1      -5.800000   20.520000   29.927998       1.0000      1.0079
  274   1 O    8      -3.590000    7.220001   37.467999       6.0000     15.9994
  275   2 H    1      -3.500000    7.100000   38.487999       1.0000      1.0079
  276   2 H    1      -4.360000    6.600000   37.237999       1.0000      1.0079
  277   1 O    8      -3.630000    2.970000   37.917998       6.0000     15.9994
  278   2 H    1      -3.420000    2.080000   38.307999       1.0000      1.0079
  279   2 H    1      -3.110000    2.980000   37.087998       1.0000      1.0079
  280   1 O    8      -4.930000   14.490002   37.407999       6.0000     15.9994
  281   2 H    1      -4.850000   14.980001   36.537999       1.0000      1.0079
  282   2 H    1      -5.760000   14.010000   37.528000       1.0000      1.0079
  283   1 O    8      -4.350000    9.940001   36.927998       6.0000     15.9994
  284   2 H    1      -4.030000    9.040001   37.357998       1.0000      1.0079
  285   2 H    1      -5.190001   10.040001   37.517998       1.0000      1.0079
  286   1 O    8      -8.020000   -6.460000   37.737999       6.0000     15.9994
  287   2 H    1      -8.030001   -5.480001   37.668000       1.0000      1.0079
  288   2 H    1      -7.980001   -6.660000   38.668000       1.0000      1.0079
  289   1 O    8       8.250000   12.860001   29.207997       6.0000     15.9994
  290   2 H    1      -9.360001   13.370000   29.458001       1.0000      1.0079
  291   2 H    1       8.010000   11.880001   29.337998       1.0000      1.0079
  292   1 O    8     -10.240001   13.180000   32.747998       6.0000     15.9994
  293   2 H    1      -9.460000   12.800001   32.257998       1.0000      1.0079
  294   2 H    1     -10.110001   12.820001   33.647997       1.0000      1.0079
  295   1 O    8       0.990000    1.060000   30.037999       6.0000     15.9994
  296   2 H    1       1.370000    1.840000   30.587998       1.0000      1.0079
  297   2 H    1       1.150000    1.270000   29.087998       1.0000      1.0079
  298   3 Pt  78       1.820000    0.700000   26.918000      10.0000    195.0840
  299   3 Pt  78       4.510000    0.580000   26.867997      10.0000    195.0840
  300   3 Pt  78       7.410001    0.720000   26.748001      10.0000    195.0840
  301   3 Pt  78      10.170001    0.670000   26.547997      10.0000    195.0840
  302   3 Pt  78      12.900001    0.740000   26.647999      10.0000    195.0840
  303   3 Pt  78      15.680000    0.690000   26.807999      10.0000    195.0840
  304   3 Pt  78       3.090000    3.060000   26.818001      10.0000    195.0840
  305   3 Pt  78       6.000000    3.000000   26.777996      10.0000    195.0840
  306   3 Pt  78       8.820001    3.140000   26.707997      10.0000    195.0840
  307   3 Pt  78      11.710000    3.290000   26.598000      10.0000    195.0840
  308   3 Pt  78      14.510001    3.280000   26.967999      10.0000    195.0840
  309   3 Pt  78       0.390000    3.110000   26.827999      10.0000    195.0840
  310   3 Pt  78       4.690000    5.330000   26.877999      10.0000    195.0840
  311   3 Pt  78       7.480001    5.590000   26.837998      10.0000    195.0840
  312   3 Pt  78      10.320001    5.570001   26.767998      10.0000    195.0840
  313   3 Pt  78      13.110001    5.640000   26.918000      10.0000    195.0840
  314   3 Pt  78      -0.970000    5.530000   26.927998      10.0000    195.0840
  315   3 Pt  78       1.760000    5.540000   26.797997      10.0000    195.0840
  316   3 Pt  78       5.970000    8.110001   26.797997      10.0000    195.0840
  317   3 Pt  78       8.870000    7.940001   26.877999      10.0000    195.0840
  318   3 Pt  78      11.630001    8.080000   26.918000      10.0000    195.0840
  319   3 Pt  78      -2.450000    8.040000   27.048001      10.0000    195.0840
  320   3 Pt  78       0.370000    7.960001   26.857998      10.0000    195.0840
  321   3 Pt  78       3.060000    7.980001   26.758000      10.0000    195.0840
  322   3 Pt  78       7.500000   10.450001   26.857998      10.0000    195.0840
  323   3 Pt  78      10.100000   10.430001   26.947998      10.0000    195.0840
  324   3 Pt  78      -3.870000   10.380001   27.028000      10.0000    195.0840
  325   3 Pt  78      -1.180000   10.480001   26.978001      10.0000    195.0840
  326   3 Pt  78       1.750000   10.410000   26.978001      10.0000    195.0840
  327   3 Pt  78       4.600000   10.520000   26.758000      10.0000    195.0840
  328   3 Pt  78       8.710001   13.030001   26.907997      10.0000    195.0840
  329   3 Pt  78      -5.330000   12.770000   27.098000      10.0000    195.0840
  330   3 Pt  78      -2.480000   12.810000   26.867997      10.0000    195.0840
  331   3 Pt  78       0.390000   12.860001   26.848000      10.0000    195.0840
  332   3 Pt  78       3.170000   12.820001   26.758000      10.0000    195.0840
  333   3 Pt  78       5.960000   12.890000   26.697998      10.0000    195.0840
  334   3 Pt  78       0.320000    1.530000   24.528000      10.0000    195.0840
  335   3 Pt  78       3.010000    1.500000   24.478001      10.0000    195.0840
  336   3 Pt  78       5.880000    1.450000   24.427998      10.0000    195.0840
  337   3 Pt  78       8.680000    1.450000   24.397999      10.0000    195.0840
  338   3 Pt  78      11.570001    1.530000   24.357998      10.0000    195.0840
  339   3 Pt  78      14.410001    1.570000   24.388001      10.0000    195.0840
  340   3 Pt  78       1.610000    4.020000   24.487999      10.0000    195.0840
  341   3 Pt  78       4.510000    4.020000   24.528000      10.0000    195.0840
  342   3 Pt  78       7.320001    3.980000   24.437996      10.0000    195.0840
  343   3 Pt  78      10.190001    3.890000   24.248001      10.0000    195.0840
  344   3 Pt  78      12.930001    3.940000   24.377999      10.0000    195.0840
  345   3 Pt  78      -1.160000    3.900000   24.497998      10.0000    195.0840
  346   3 Pt  78       3.130000    6.450000   24.607998      10.0000    195.0840
  347   3 Pt  78       5.890000    6.430000   24.517998      10.0000    195.0840
  348   3 Pt  78       8.770000    6.360001   24.397999      10.0000    195.0840
  349   3 Pt  78      11.600000    6.370000   24.467999      10.0000    195.0840
  350   3 Pt  78      -2.530000    6.290000   24.507996      10.0000    195.0840
  351   3 Pt  78       0.260000    6.430000   24.517998      10.0000    195.0840
  352   3 Pt  78       4.450000    8.830000   24.467999      10.0000    195.0840
  353   3 Pt  78       7.270000    8.880001   24.517998      10.0000    195.0840
  354   3 Pt  78      10.110001    8.810000   24.557999      10.0000    195.0840
  355   3 Pt  78      -3.950000    8.700001   24.537999      10.0000    195.0840
  356   3 Pt  78      -1.150000    8.770000   24.618000      10.0000    195.0840
  357   3 Pt  78       1.610000    8.870000   24.598000      10.0000    195.0840
  358   3 Pt  78       5.840001   11.270000   24.427998      10.0000    195.0840
  359   3 Pt  78       8.620001   11.190001   24.607998      10.0000    195.0840
  360   3 Pt  78      -5.360000   11.320001   24.668000      10.0000    195.0840
  361   3 Pt  78      -2.450000   11.140001   24.647999      10.0000    195.0840
  362   3 Pt  78       0.280000   11.260000   24.618000      10.0000    195.0840
  363   3 Pt  78       2.980000   11.280001   24.478001      10.0000    195.0840
  364   3 Pt  78       7.280001   13.690001   24.447998      10.0000    195.0840
  365   3 Pt  78      -6.850000   13.640001   24.618000      10.0000    195.0840
  366   3 Pt  78      -4.000000   13.640001   24.537999      10.0000    195.0840
  367   3 Pt  78      -1.210000   13.610001   24.548001      10.0000    195.0840
  368   3 Pt  78       1.620000   13.720001   24.337998      10.0000    195.0840
  369   3 Pt  78       4.380000   13.750001   24.437996      10.0000    195.0840
  370   3 Pt  78      -8.240001   14.520000   22.237999      10.0000    195.0840
  371   3 Pt  78      -5.400000   14.520000   22.307999      10.0000    195.0840
  372   3 Pt  78      -2.580000   14.520000   22.227997      10.0000    195.0840
  373   3 Pt  78       0.100000   14.330001   22.117997      10.0000    195.0840
  374   3 Pt  78       3.020000   14.460001   22.107998      10.0000    195.0840
  375   3 Pt  78       5.810000   14.530001   22.098000      10.0000    195.0840
  376   3 Pt  78       1.610000    2.410000   22.247998      10.0000    195.0840
  377   3 Pt  78       4.410000    2.360000   22.147999      10.0000    195.0840
  378   3 Pt  78       7.210000    2.350000   22.117997      10.0000    195.0840
  379   3 Pt  78      10.000000    2.200000   22.098000      10.0000    195.0840
  380   3 Pt  78      12.880001    2.290000   22.087998      10.0000    195.0840
  381   3 Pt  78      -1.180000    2.320000   22.208001      10.0000    195.0840
  382   3 Pt  78       3.070000    4.870000   22.278000      10.0000    195.0840
  383   3 Pt  78       5.820000    4.810000   22.217999      10.0000    195.0840
  384   3 Pt  78       8.650001    4.830000   22.127999      10.0000    195.0840
  385   3 Pt  78      11.400002    4.690000   22.068001      10.0000    195.0840
  386   3 Pt  78      -2.710000    4.730000   22.177998      10.0000    195.0840
  387   3 Pt  78       0.290000    4.730000   22.187996      10.0000    195.0840
  388   3 Pt  78       4.450000    7.330000   22.168000      10.0000    195.0840
  389   3 Pt  78       7.220001    7.210000   22.217999      10.0000    195.0840
  390   3 Pt  78      10.020000    7.280001   22.197998      10.0000    195.0840
  391   3 Pt  78      -4.040000    7.220001   22.227997      10.0000    195.0840
  392   3 Pt  78      -1.190000    7.130001   22.168000      10.0000    195.0840
  393   3 Pt  78       1.630000    7.160000   22.247998      10.0000    195.0840
  394   3 Pt  78       5.820000    9.700001   22.247998      10.0000    195.0840
  395   3 Pt  78       8.670000    9.640000   22.297997      10.0000    195.0840
  396   3 Pt  78      -5.340000    9.720000   22.327999      10.0000    195.0840
  397   3 Pt  78      -2.560000    9.540001   22.278000      10.0000    195.0840
  398   3 Pt  78       0.360000    9.570000   22.237999      10.0000    195.0840
  399   3 Pt  78       3.010000    9.640000   22.157997      10.0000    195.0840
  400   3 Pt  78       7.190001   12.160001   22.177998      10.0000    195.0840
  401   3 Pt  78      -6.860001   12.070000   22.327999      10.0000    195.0840
  402   3 Pt  78      -3.990000   12.060001   22.237999      10.0000    195.0840
  403   3 Pt  78      -1.220000   11.910001   22.227997      10.0000    195.0840
  404   3 Pt  78       1.510000   12.050000   22.138001      10.0000    195.0840
  405   3 Pt  78       4.310000   12.150001   22.157997      10.0000    195.0840
  406   3 Pt  78       1.560000    0.740000   20.060000      10.0000    195.0840
  407   3 Pt  78       4.420000    0.630000   20.000000      10.0000    195.0840
  408   3 Pt  78       7.200000    0.690000   19.880000      10.0000    195.0840
  409   3 Pt  78       9.880000    0.620000   19.780000      10.0000    195.0840
  410   3 Pt  78      12.770000    0.620000   19.780000      10.0000    195.0840
  411   3 Pt  78      15.560001    0.690000   19.840000      10.0000    195.0840
  412   3 Pt  78       3.040000    3.090000   19.980000      10.0000    195.0840
  413   3 Pt  78       5.740000    3.130000   19.830000      10.0000    195.0840
  414   3 Pt  78       8.530001    3.220000   19.880000      10.0000    195.0840
  415   3 Pt  78      11.320001    3.090000   19.850000      10.0000    195.0840
  416   3 Pt  78      14.150001    3.120000   19.820000      10.0000    195.0840
  417   3 Pt  78       0.160000    3.050000   19.880000      10.0000    195.0840
  418   3 Pt  78       4.380000    5.560000   19.850000      10.0000    195.0840
  419   3 Pt  78       7.120000    5.670000   19.910000      10.0000    195.0840
  420   3 Pt  78       9.980000    5.680000   19.870000      10.0000    195.0840
  421   3 Pt  78      12.700001    5.520000   19.940000      10.0000    195.0840
  422   3 Pt  78      -1.210000    5.480001   19.970000      10.0000    195.0840
  423   3 Pt  78       1.610000    5.500000   19.920000      10.0000    195.0840
  424   3 Pt  78       5.780000    8.010000   19.920000      10.0000    195.0840
  425   3 Pt  78       8.540000    8.160001   19.890000      10.0000    195.0840
  426   3 Pt  78      11.430000    8.060000   19.910000      10.0000    195.0840
  427   3 Pt  78      -2.670000    7.960001   19.930000      10.0000    195.0840
  428   3 Pt  78       0.170000    7.900000   19.870000      10.0000    195.0840
  429   3 Pt  78       3.010000    7.980001   19.840000      10.0000    195.0840
  430   3 Pt  78       7.190001   10.550001   19.960000      10.0000    195.0840
  431   3 Pt  78      10.010000   10.470000   20.020000      10.0000    195.0840
  432   3 Pt  78      -4.000000   10.420000   20.000000      10.0000    195.0840
  433   3 Pt  78      -1.230000   10.390000   19.830000      10.0000    195.0840
  434   3 Pt  78       1.480000   10.480001   19.720000      10.0000    195.0840
  435   3 Pt  78       4.310000   10.460000   19.870000      10.0000    195.0840
  436   3 Pt  78       8.580000   12.930001   19.920000      10.0000    195.0840
  437   3 Pt  78      -5.510000   12.790001   20.080000      10.0000    195.0840
  438   3 Pt  78      -2.630000   12.840000   19.900000      10.0000    195.0840
  439   3 Pt  78       0.040000   12.780001   19.850000      10.0000    195.0840
  440   3 Pt  78       2.910000   12.890000   19.740000      10.0000    195.0840
  441   3 Pt  78       5.750000   12.920000   19.890000      10.0000    195.0840
  442   3 Pt  78       0.230000    1.390000   17.590000      10.0000    195.0840
  443   3 Pt  78       3.000000    1.460000   17.710000      10.0000    195.0840
  444   3 Pt  78       5.840001    1.530000   17.440000      10.0000    195.0840
  445   3 Pt  78       8.550000    1.550000   17.560000      10.0000    195.0840
  446   3 Pt  78      11.350001    1.450000   17.530000      10.0000    195.0840
  447   3 Pt  78      14.270000    1.540000   17.500000      10.0000    195.0840
  448   3 Pt  78       1.530000    3.890000   17.650000      10.0000    195.0840
  449   3 Pt  78       4.300000    3.930000   17.490000      10.0000    195.0840
  450   3 Pt  78       7.120000    4.040000   17.530000      10.0000    195.0840
  451   3 Pt  78       9.900001    3.970000   17.450000      10.0000    195.0840
  452   3 Pt  78      12.680000    3.930000   17.570000      10.0000    195.0840
  453   3 Pt  78      -1.320000    3.930000   17.620000      10.0000    195.0840
  454   3 Pt  78       2.900000    6.440001   17.610000      10.0000    195.0840
  455   3 Pt  78       5.700001    6.390000   17.660000      10.0000    195.0840
  456   3 Pt  78       8.600000    6.470000   17.590000      10.0000    195.0840
  457   3 Pt  78      11.360001    6.500000   17.600000      10.0000    195.0840
  458   3 Pt  78      -2.720000    6.310000   17.590000      10.0000    195.0840
  459   3 Pt  78       0.040000    6.430000   17.650000      10.0000    195.0840
  460   3 Pt  78       4.380000    8.860001   17.500000      10.0000    195.0840
  461   3 Pt  78       7.080000    8.880001   17.580000      10.0000    195.0840
  462   3 Pt  78       9.890000    8.880001   17.690000      10.0000    195.0840
  463   3 Pt  78      -4.020000    8.890000   17.650000      10.0000    195.0840
  464   3 Pt  78      -1.180000    8.880001   17.560000      10.0000    195.0840
  465   3 Pt  78       1.480000    8.730000   17.470000      10.0000    195.0840
  466   3 Pt  78       5.720000   11.290001   17.520000      10.0000    195.0840
  467   3 Pt  78       8.560000   11.230000   17.610000      10.0000    195.0840
  468   3 Pt  78      -5.430000   11.280001   17.690000      10.0000    195.0840
  469   3 Pt  78      -2.590000   11.310000   17.530000      10.0000    195.0840
  470   3 Pt  78       0.200000   11.310000   17.440000      10.0000    195.0840
  471   3 Pt  78       2.940000   11.170001   17.400000      10.0000    195.0840
  472   3 Pt  78       7.200000   13.830000   17.550000      10.0000    195.0840
  473   3 Pt  78      -6.830000   13.590001   17.580000      10.0000    195.0840
  474   3 Pt  78      -4.010000   13.660001   17.650000      10.0000    195.0840
  475   3 Pt  78      -1.320000   13.780001   17.530000      10.0000    195.0840
  476   3 Pt  78       1.570000   13.640001   17.420000      10.0000    195.0840
  477   3 Pt  78       4.320000   13.660001   17.520000      10.0000    195.0840
  478   3 Pt  78      -8.310000   14.620000   15.130000      10.0000    195.0840
  479   3 Pt  78      -5.550000   14.680000   15.250000      10.0000    195.0840
  480   3 Pt  78      -2.610000   14.750000   15.120000      10.0000    195.0840
  481   3 Pt  78       0.300000   14.550000   15.170000      10.0000    195.0840
  482   3 Pt  78       2.930000   14.430000   15.000000      10.0000    195.0840
  483   3 Pt  78       5.690000   14.560001   15.180000      10.0000    195.0840
  484   3 Pt  78       1.470000    2.400000   15.300000      10.0000    195.0840
  485   3 Pt  78       4.340000    2.400000   15.030000      10.0000    195.0840
  486   3 Pt  78       7.210000    2.400000   15.180000      10.0000    195.0840
  487   3 Pt  78       9.980000    2.300000   15.120000      10.0000    195.0840
  488   3 Pt  78      12.620001    2.310000   15.110000      10.0000    195.0840
  489   3 Pt  78      -1.430000    2.460000   15.070000      10.0000    195.0840
  490   3 Pt  78       3.060000    4.820000   15.290000      10.0000    195.0840
  491   3 Pt  78       5.760000    4.910000   15.260000      10.0000    195.0840
  492   3 Pt  78       8.520000    4.810000   15.100000      10.0000    195.0840
  493   3 Pt  78      11.400002    4.870000   15.110000      10.0000    195.0840
  494   3 Pt  78      -2.820000    4.800000   15.230000      10.0000    195.0840
  495   3 Pt  78       0.010000    4.700000   15.430000      10.0000    195.0840
  496   3 Pt  78       4.260000    7.330000   15.270000      10.0000    195.0840
  497   3 Pt  78       7.190001    7.330000   15.250000      10.0000    195.0840
  498   3 Pt  78       9.920000    7.400000   15.290000      10.0000    195.0840
  499   3 Pt  78      -4.060000    7.200000   15.320000      10.0000    195.0840
  500   3 Pt  78      -1.300000    7.210000   15.190000      10.0000    195.0840
  501   3 Pt  78       1.540000    7.190001   15.180000      10.0000    195.0840
  502   3 Pt  78       5.770000    9.660000   15.250000      10.0000    195.0840
  503   3 Pt  78       8.550000    9.820001   15.200000      10.0000    195.0840
  504   3 Pt  78      -5.470000    9.650001   15.430000      10.0000    195.0840
  505   3 Pt  78      -2.760000    9.590000   15.280000      10.0000    195.0840
[...]
 flops     5 x    13 x    96           5296811520       0.0%    100.0%      0.0%
 flops    13 x    20 x   120           5654563200       0.0%    100.0%      0.0%
 flops    20 x    13 x   120           5666918400       0.0%    100.0%      0.0%
 flops    13 x    32 x    13           5790853952       0.0%    100.0%      0.0%
 flops    20 x     5 x   120           6031344000       0.0%    100.0%      0.0%
 flops     5 x    20 x   120           6049296000       0.0%    100.0%      0.0%
 flops    13 x    13 x    96           6336185856       0.0%    100.0%      0.0%
 flops    13 x    32 x    20           8371034880       0.0%    100.0%      0.0%
 flops    20 x    32 x    13           8371034880       0.0%    100.0%      0.0%
 flops     5 x    32 x    20           8932352000       0.0%    100.0%      0.0%
 flops    20 x    32 x     5           8932352000       0.0%    100.0%      0.0%
 flops    13 x    20 x    96           9047301120       0.0%    100.0%      0.0%
 flops    20 x    13 x    96           9067069440       0.0%    100.0%      0.0%
 flops    20 x     5 x    96           9650150400       0.0%    100.0%      0.0%
 flops     5 x    20 x    96           9678873600       0.0%    100.0%      0.0%
 flops     5 x     5 x   128          36051558400       0.0%    100.0%      0.0%
 flops    13 x     5 x   128          45867627520       0.0%    100.0%      0.0%
 flops     5 x    13 x   128          45905699840       0.0%    100.0%      0.0%
 flops    20 x    20 x   120          49496832000       0.0%    100.0%      0.0%
 flops    13 x    13 x   128          54913610752       0.0%    100.0%      0.0%
 flops    20 x    32 x    20          72858009600       0.0%    100.0%      0.0%
 flops    13 x    20 x   128          78409943040       0.0%    100.0%      0.0%
 flops    20 x    13 x   128          78581268480       0.0%    100.0%      0.0%
 flops    20 x    20 x    96          79194931200       0.0%    100.0%      0.0%
 flops    20 x     5 x   128          83634636800       0.0%    100.0%      0.0%
 flops     5 x    20 x   128          83883571200       0.0%    100.0%      0.0%
 flops    20 x    20 x   128         686356070400       0.0%    100.0%      0.0%
 flops inhomo. stacks                           0       0.0%      0.0%      0.0%
 flops total                         1.545833E+12       0.0%    100.0%      0.0%
 flops max/rank                     14.200595E+09       0.0%    100.0%      0.0%
 matmuls inhomo. stacks                         0       0.0%      0.0%      0.0%
 matmuls total                           46607150       0.0%    100.0%      0.0%
 number of processed stacks                426949       0.0%    100.0%      0.0%
 average stack size                                     0.0     109.2       0.0
 marketing flops                     3.114930E+12
 -------------------------------------------------------------------------------
 # multiplications                             23
 max memory usage/rank               1.572962E+09
 # max total images/rank                        2
 # max 3D layers                                1
 # MPI messages exchanged                   85376
 MPI messages size (bytes):
  total size                        55.103750E+09
  min size                         272.640000E+03
  max size                           2.303488E+06
  average size                     645.424375E+03
 MPI breakdown and total messages size (bytes):
             size <=      128                   0                        0
       128 < size <=     8192                   0                        0
      8192 < size <=    32768                   0                        0
     32768 < size <=   131072                   0                        0
    131072 < size <=  4194304               85376              55103750376
   4194304 < size <= 16777216                   0                        0
  16777216 < size                               0                        0
 -------------------------------------------------------------------------------

 *** WARNING in dbcsr_mm.F:290 :: Using a non-square number of MPI ranks ***
 *** might lead to poor performance. Used ranks: 128 Suggested: 121 256  ***

 -------------------------------------------------------------------------------
 -                                                                             -
 -                      DBCSR MESSAGE PASSING PERFORMANCE                      -
 -                                                                             -
 -------------------------------------------------------------------------------
 ROUTINE             CALLS      AVE VOLUME [Bytes]
 MP_Bcast               46                     12.
 MP_Allreduce          264                     15.
 MP_Alltoall           637                 602995.
 MP_ISend             1472                 306934.
 MP_IRecv             1472                 300467.
 -------------------------------------------------------------------------------

 -------------------------------------------------------------------------------
 -                                                                             -
 -                                DBM STATISTICS                               -
 -                                                                             -
 -------------------------------------------------------------------------------
    M  x    N  x    K                                          COUNT     PERCENT
 -------------------------------------------------------------------------------

 -------------------------------------------------------------------------------
 -                                                                             -
 -                                GRID STATISTICS                              -
 -                                                                             -
 -------------------------------------------------------------------------------
 LP    KERNEL             BACKEND                              COUNT     PERCENT
 4     collocate general  REF                                8502879      22.25%
 4     integrate general  REF                                8375475      21.91%
 3     collocate general  REF                                5827395      15.25%
 3     integrate general  REF                                5771338      15.10%
 2     collocate general  REF                                4650198      12.17%
 2     integrate general  REF                                4428760      11.59%
 5     integrate general  REF                                 404899       1.06%
 0     collocate general  REF                                 131328       0.34%
 0     integrate general  REF                                  65664       0.17%
 1     integrate general  REF                                  65664       0.17%
 -------------------------------------------------------------------------------

 MEMORY| Estimated peak process memory [MiB]                                1759

 -------------------------------------------------------------------------------
 ----                             MULTIGRID INFO                            ----
 -------------------------------------------------------------------------------
 count for grid        1:        1094960          cutoff [a.u.]          200.00
 count for grid        2:        1089874          cutoff [a.u.]           66.67
 count for grid        3:         713198          cutoff [a.u.]           22.22
 count for grid        4:         551114          cutoff [a.u.]            7.41
 total gridlevel count  :        3449146

 -------------------------------------------------------------------------------
 -                                                                             -
 -                         MESSAGE PASSING PERFORMANCE                         -
 -                                                                             -
 -------------------------------------------------------------------------------

 ROUTINE             CALLS      AVE VOLUME [Bytes]
 MP_Group                4
 MP_Bcast             2151                 313461.
 MP_Allreduce         2970                  36324.
 MP_Sync                48
 MP_Alltoall          1282               16994571.
 MP_SendRecv           508                   5931.
 MP_ISendRecv        10668                  61740.
 MP_Wait             19170
 MP_comm_split          22
 MP_ISend             8020                 256827.
 MP_IRecv             8020                 256827.
 MP_Recv                61                1688832.
 MP_Write_All            3                1797408.
 -------------------------------------------------------------------------------


 -------------------------------------------------------------------------------
 -                                                                             -
 -                           R E F E R E N C E S                               -
 -                                                                             -
 -------------------------------------------------------------------------------
 
 CP2K version 2022.1, the CP2K developers group (2022).
 CP2K is freely available from https://www.cp2k.org/ .

 Kuehne,Thomas D.; Iannuzzi,Marcella; Del Ben,Mauro;
 Rybkin,Vladimir V.; Seewald,Patrick; Stein,Frederick; Laino,Teodoro;
 Khaliullin,Rustam Z.; Schuett,Ole; Schiffmann,Florian; Golze,Dorothea;
 Wilhelm,Jan; Chulkov,Sergey; Bani-Hashemian,Mohammad Hossein;
 Weber,Valery; Borstnik,Urban; Taillefumier,Mathieu;
 Jakobovits,Alice Shoshana; Lazzaro,Alfio; Pabst,Hans; Mueller,Tiziano;
 Schade,Robert; Guidon,Manuel; Andermatt,Samuel; Holmberg,Nico;
 Schenter,Gregory K.; Hehn,Anna; Bussy,Augustin; Belleflamme,Fabian;
 Tabacchi,Gloria; Gloess,Andreas; Lass,Michael; Bethune,Iain;
 Mundy,Christopher J.; Plessl,Christian; Watkins,Matt;
 VandeVondele,Joost; Krack,Matthias; Hutter,Juerg. 
 The Journal of Chemical Physics, 152 (19), (2020). 
 CP2K: An electronic structure and molecular dynamics software package -
 Quickstep: Efficient and accurate electronic structure calculations.
 https://doi.org/10.1063/5.0007045

 Goerigk, Lars; Hansen, Andreas; Bauer, Christoph; Ehrlich, Stephan;
 Najibi, Asim; Grimme, Stefan. , 19 (48), (2017). 
 A look at the density functional theory zoo with the advanced GMTKN55 database
 for general main group thermochemistry, kinetics and noncovalent interactions.
 https://doi.org/10.1039/C7CP04913G

 Bani-Hashemian, MH; Bruck, S; Luisier, M; VandeVondele, J. 
 JOURNAL OF CHEMICAL PHYSICS, 144 (4), 044113 (2016). 
 A generalized Poisson solver for first-principles device simulations.
 https://doi.org/10.1063/1.4940796

 Schuett, Ole; Messmer, Peter; Hutter, Juerg; VandeVondele, Joost. 
 Electronic Structure Calculations on Graphics Processing Units, John
 Wiley & Sons, Ltd, 173-190 (2016). 
 GPU-Accelerated Sparse Matrix-Matrix Multiplication for
 Linear Scaling Density Functional Theory.
 https://doi.org/10.1002/9781118670712.ch8

 Heinecke, A; Henry, G; Hutchinson, M; Pabst, H. 
 Proceedings of Intl. Supercomputing Conference, 981-991 (2016). 
 LIBXSMM: Accelerating Small Matrix Multiplications
 by Runtime Code Generation.
 https://doi.org/10.1109/SC.2016.83

 Borstnik, U; VandeVondele, J; Weber, V; Hutter, J. 
 PARALLEL COMPUTING, 40 (5-6), 47-58 (2014). 
 Sparse matrix multiplication: The distributed block-compressed sparse
 row library.
 https://doi.org/10.1016/j.parco.2014.03.012

 Hutter, J; Iannuzzi, M; Schiffmann, F; VandeVondele, J. 
 WIREs Comput Mol Sci., 4 (1), 15-25 (2014). 
 CP2K: atomistic simulations of condensed matter systems.
 https://doi.org/10.1002/wcms.1159

 Marek, A; Blum, V; Johanni, R; Havu, V; Lang, B; Auckenthaler, T;
 Heinecke, A; Bungartz, H; Lederer, H. 
 Journal of Physics: Condensed Matter, 26 (21), (2014). 
 The ELPA library: scalable parallel eigenvalue solutions for
 electronic structure
 theory and computational science.
 https://doi.org/10.1088/0953-8984/26/21/213201

 Grimme, S; Ehrlich, S; Goerigk, L. 
 JOURNAL OF COMPUTATIONAL CHEMISTRY, 32, 1456 (2011). 
 Effect of the damping function in dispersion corrected density functional theory.
 https://doi.org/10.1002/jcc.21759

 Grimme, S; Antony, J; Ehrlich, S; Krieg, H. 
 JOURNAL OF CHEMICAL PHYSICS, 132 (15), 154104 (2010). 
 A consistent and accurate ab initio parametrization of density
 functional dispersion correction (DFT-D) for the 94 elements H-Pu.
 https://doi.org/10.1063/1.3382344

 VandeVondele, J; Hutter, J. 
 JOURNAL OF CHEMICAL PHYSICS, 127 (11), 114105 (2007). 
 Gaussian basis sets for accurate calculations on molecular systems in
 gas and condensed phases.
 https://doi.org/10.1063/1.2770708

 Krack, M. 
 THEORETICAL CHEMISTRY ACCOUNTS, 114 (1-3), 145-152 (2005). 
 Pseudopotentials for H to Kr optimized for gradient-corrected
 exchange-correlation functionals.
 https://doi.org/10.1007/s00214-005-0655-y

 VandeVondele, J; Krack, M; Mohamed, F; Parrinello, M; Chassaing, T;
 Hutter, J. COMPUTER PHYSICS COMMUNICATIONS, 167 (2), 103-128 (2005). 
 QUICKSTEP: Fast and accurate density functional calculations using a
 mixed Gaussian and plane waves approach.
 https://doi.org/10.1016/j.cpc.2004.12.014

 Frigo, M; Johnson, SG. 
 PROCEEDINGS OF THE IEEE, 93 (2), 216-231 (2005). 
 The design and implementation of FFTW3.
 https://doi.org/10.1109/JPROC.2004.840301

 Hartwigsen, C; Goedecker, S; Hutter, J. 
 PHYSICAL REVIEW B, 58 (7), 3641-3662 (1998). 
 Relativistic separable dual-space Gaussian pseudopotentials from H to Rn.
 https://doi.org/10.1103/PhysRevB.58.3641

 Lippert, G; Hutter, J; Parrinello, M. 
 MOLECULAR PHYSICS, 92 (3), 477-487 (1997). 
 A hybrid Gaussian and plane wave density functional scheme.
 https://doi.org/10.1080/002689797170220

 Perdew, JP; Burke, K; Ernzerhof, M. 
 PHYSICAL REVIEW LETTERS, 77 (18), 3865-3868 (1996). 
 Generalized gradient approximation made simple.
 https://doi.org/10.1103/PhysRevLett.77.3865

 Goedecker, S; Teter, M; Hutter, J. 
 PHYSICAL REVIEW B, 54 (3), 1703-1710 (1996). 
 Separable dual-space Gaussian pseudopotentials.
 https://doi.org/10.1103/PhysRevB.54.1703


 -------------------------------------------------------------------------------
 -                                                                             -
 -                                T I M I N G                                  -
 -                                                                             -
 -------------------------------------------------------------------------------
 SUBROUTINE                       CALLS  ASD         SELF TIME        TOTAL TIME
                                MAXIMUM       AVERAGE  MAXIMUM  AVERAGE  MAXIMUM
 CP2K                                 1  1.0    0.024    0.036  152.051  152.052
 qs_forces                            1  2.0    0.002    0.002  151.639  151.640
 qs_energies                          1  3.0    0.000    0.001  145.494  145.500
 scf_env_do_scf                       1  4.0    0.000    0.001  136.224  136.362
 scf_env_do_scf_inner_loop           20  5.0    0.002    0.004  136.220  136.358
 rebuild_ks_matrix                   21  6.9    0.000    0.000   75.781   75.805
 qs_ks_build_kohn_sham_matrix        21  7.9    0.004    0.004   75.781   75.805
 qs_ks_update_qs_env                 20  6.0    0.000    0.000   71.746   71.768
 pw_transfer                       1096 12.1    0.080    0.103   48.597   49.545
 fft_wrap_pw1pw2                   1096 13.1    0.010    0.012   48.518   49.446
 fft_wrap_pw1pw2_200                970 14.4    3.219    3.787   47.886   48.805
 pw_poisson_solve                    21  8.9    0.002    0.005   41.191   41.211
 fft3d_ps                          1096 15.1   13.738   15.286   39.185   40.684
 qs_scf_new_mos                      20  6.0    0.001    0.003   39.574   39.649
 implicit_poisson_solver_mixed_      21  9.9    0.870    1.069   38.778   38.807
 eigensolver                         20  7.0    0.002    0.002   37.329   37.437
 derive_fft                         126 12.0    0.008    0.009   27.209   27.296
 cp_fm_diag_elpa                     22  8.1    0.000    0.000   27.114   27.184
 cp_fm_redistribute_end              22  9.1    3.627   26.845    3.668   26.871
 cp_fm_diag_elpa_base                22  9.1   22.851   26.274   23.073   26.505
 mp_alltoall_z22v                  1096 17.1   21.450   26.368   21.450   26.368
 apply_P_operator                   105 11.1    0.562    0.635   23.219   23.305
 sum_up_and_integrate                21  8.9    0.114    0.147   22.875   22.903
 qs_rho_update_rho_low               21  6.0    0.000    0.000   22.860   22.864
 calculate_rho_elec                  21  7.0    0.041    0.050   22.860   22.863
 integrate_v_rspace                  21  9.9    0.001    0.001   22.761   22.812
 grid_collocate_task_list            21  8.0   15.156   17.899   15.156   17.899
 x_to_yz                            631 16.3    2.666    3.489   16.360   16.918
 grid_integrate_task_list            21 10.9   14.156   16.410   14.156   16.410
 cp_fm_triangular_multiply           60  8.0   11.801   11.923   11.801   11.923
 yz_to_x                            339 16.4    0.928    1.086    8.605   11.719
 rs_pw_transfer                     172 10.4    0.002    0.002   10.182   11.527
 qs_vxc_create                       21  8.9    0.001    0.001   10.423   10.550
 xc_vxc_pw_create                    21  9.9    0.179    0.222   10.422   10.550
 density_rs2pw                       21  8.0    0.001    0.002    7.315    8.723
 xc_pw_derive                       126 11.9    0.002    0.002    7.342    8.113
 apply_poisson_operator_fft          21 10.9    0.000    0.000    6.787    6.907
 apply_inv_laplace_operator_fft      65 11.6    0.163    0.198    6.299    6.522
 potential_pw2rs                     21 10.9    0.006    0.007    6.014    6.069
 scf_post_calculation_gpw             1  4.0    0.000    0.001    5.856    5.862
 write_available_results              1  5.0    0.000    0.000    5.856    5.862
 rs_pw_transfer_RS2PW_200            23  9.9    1.499    1.666    4.277    5.625
 xc_pw_divergence                    21 10.9    0.001    0.001    4.963    5.557
 mp_waitany                        8020 12.2    4.192    5.493    4.192    5.493
 xc_rho_set_and_dset_create          21 10.9    0.105    0.123    5.084    5.392
 ps_implicit_compute_error_fft       42 10.9    0.264    0.322    4.556    4.904
 ps_implicit_compute_veps            21 10.9    0.123    0.147    4.676    4.751
 mp_alltoall_d11v                   316 10.2    3.152    4.516    3.152    4.516
 pw_scatter_p                       694 15.3    3.878    4.503    3.878    4.503
 qs_ks_update_qs_env_forces           1  3.0    0.000    0.000    4.068    4.068
 write_mo_dependent_results           1  6.0    0.000    0.000    2.612    3.938
 calculate_projected_dos              1  7.0    0.362    1.829    2.612    3.938
 rs_gather_matrices                  21 10.9    0.025    0.032    2.569    3.902
 rs_pw_transfer_PW2RS_200            23 12.5    1.728    1.812    3.636    3.724
 pw_derive                          504 13.0    3.196    3.428    3.196    3.428
 write_mo_free_results                1  6.0    0.285    0.387    3.244    3.256
 -------------------------------------------------------------------------------

 The number of warnings for this run is : 1
 
 -------------------------------------------------------------------------------
  **** **** ******  **  PROGRAM ENDED AT                 2023-12-02 00:09:31.855
 ***** ** ***  *** **   PROGRAM RAN ON                                     cu011
 **    ****   ******    PROGRAM RAN BY                                     jxzhu
 ***** **    ** ** **   PROGRAM PROCESS ID                                 62282
  **** **  *******  **  PROGRAM STOPPED IN /public/home/jxzhu/tmp_calc/0201d2068
                                           31c8faf26c211859bc4969632f06006/calc/
                                           000300.000/search_hi.000000
