 DBCSR| CPU Multiplication driver                                           XSMM
 DBCSR| Multrec recursion limit                                              512
 DBCSR| Multiplication stack size                                           1000
 DBCSR| Maximum elements for images                                    UNLIMITED
 DBCSR| Multiplicative factor virtual images                                   1
 DBCSR| Use multiplication densification                                       T
 DBCSR| Multiplication size stacks                                             3
 DBCSR| Use memory pool for CPU allocation                                     F
 DBCSR| Number of 3D layers                                               SINGLE
 DBCSR| Use MPI memory allocation                                              F
 DBCSR| Use RMA algorithm                                                      F
 DBCSR| Use Communication thread                                               T
 DBCSR| Communication thread load                                             87
 DBCSR| MPI: My node id                                                        0
 DBCSR| MPI: Number of nodes                                                 128
 DBCSR| OMP: Current number of threads                                         1
 DBCSR| OMP: Max number of threads                                             1
 DBCSR| Split modifier for TAS multiplication algorithm                  1.0E+00


  **** **** ******  **  PROGRAM STARTED AT               2023-12-02 17:43:36.290
 ***** ** ***  *** **   PROGRAM STARTED ON                                 cu062
 **    ****   ******    PROGRAM STARTED BY                                 jxzhu
 ***** **    ** ** **   PROGRAM PROCESS ID                                 59401
  **** **  *******  **  PROGRAM STARTED IN /public/home/jxzhu/tmp_calc/6b4c51da6
                                           41ba5c66aad3ddb94f79f1cf4c740ec/calc/
                                           001900.000/search_hi.000001

 CP2K| version string:                                       CP2K version 2022.1
 CP2K| source code revision number:                                  git:2caeb6f
 CP2K| cp2kflags: omp libint fftw3 libxc elpa parallel mpi3 scalapack cosma xsmm
 CP2K|             plumed2 spglib mkl sirius libvori libbqb
 CP2K| is freely available from                            https://www.cp2k.org/
 CP2K| Program compiled at                           Mon Jul 3 17:37:06 CST 2023
 CP2K| Program compiled on                                                 mu003
 CP2K| Program compiled for                                                local
 CP2K| Data directory path                             /public/home/jxzhu/basis/
 CP2K| Input file name                                                 input.inp
 
 GLOBAL| Force Environment number                                              1
 GLOBAL| Basis set file name                                        BASIS_MOLOPT
 GLOBAL| Potential file name                                      GTH_POTENTIALS
 GLOBAL| MM Potential file name                                     MM_POTENTIAL
 GLOBAL| Coordinate file name                                          coord.xyz
 GLOBAL| Method name                                                        CP2K
 GLOBAL| Project name                                                       cp2k
 GLOBAL| Run type                                                   ENERGY_FORCE
 GLOBAL| FFT library                                                       FFTW3
 GLOBAL| Diagonalization library                                            ELPA
 GLOBAL| Minimum number of eigenvectors for ELPA usage                        16
 GLOBAL| Orthonormality check for eigenvectors                          DISABLED
 GLOBAL| Matrix multiplication library                                     COSMA
 GLOBAL| All-to-all communication in single precision                          F
 GLOBAL| FFTs using library dependent lengths                                  T
 GLOBAL| Grid backend                                                       AUTO
 GLOBAL| Global print level                                               MEDIUM
 GLOBAL| MPI I/O enabled                                                       T
 GLOBAL| Total number of message passing processes                           128
 GLOBAL| Number of threads for this process                                    1
 GLOBAL| This output is from process                                           0
 GLOBAL| Stack size for threads created by OpenMP (OMP_STACKSIZE)        default
 GLOBAL| CPU model name                 Intel(R) Xeon(R) Gold 6338 CPU @ 2.00GHz
 GLOBAL| CPUID                                                              1003

 MEMORY| system memory details [Kb]
 MEMORY|                        rank 0           min           max       average
 MEMORY| MemTotal            263619172     263619168     263619172     263619170
 MEMORY| MemFree             190230044     190229920     193655824     191942957
 MEMORY| Buffers                  3320            44          3320          1682
 MEMORY| Cached                1752936       1091144       1752936       1422040
 MEMORY| Slab                  2036712       1846176       2036712       1941444
 MEMORY| SReclaimable           253204        229864        253204        241534
 MEMORY| MemLikelyFree       192239504     192239380     194976876     193608213


 *** Fundamental physical constants (SI units) ***

 *** Literature: B. J. Mohr and B. N. Taylor,
 ***             CODATA recommended values of the fundamental physical
 ***             constants: 2006, Web Version 5.1
 ***             http://physics.nist.gov/constants

 Speed of light in vacuum [m/s]                             2.99792458000000E+08
 Magnetic constant or permeability of vacuum [N/A**2]       1.25663706143592E-06
 Electric constant or permittivity of vacuum [F/m]          8.85418781762039E-12
 Planck constant (h) [J*s]                                  6.62606896000000E-34
 Planck constant (h-bar) [J*s]                              1.05457162825177E-34
 Elementary charge [C]                                      1.60217648700000E-19
 Electron mass [kg]                                         9.10938215000000E-31
 Electron g factor [ ]                                     -2.00231930436220E+00
 Proton mass [kg]                                           1.67262163700000E-27
 Fine-structure constant                                    7.29735253760000E-03
 Rydberg constant [1/m]                                     1.09737315685270E+07
 Avogadro constant [1/mol]                                  6.02214179000000E+23
 Boltzmann constant [J/K]                                   1.38065040000000E-23
 Atomic mass unit [kg]                                      1.66053878200000E-27
 Bohr radius [m]                                            5.29177208590000E-11

 *** Conversion factors ***

 [u] -> [a.u.]                                              1.82288848426455E+03
 [Angstrom] -> [Bohr] = [a.u.]                              1.88972613288564E+00
 [a.u.] = [Bohr] -> [Angstrom]                              5.29177208590000E-01
 [a.u.] -> [s]                                              2.41888432650478E-17
 [a.u.] -> [fs]                                             2.41888432650478E-02
 [a.u.] -> [J]                                              4.35974393937059E-18
 [a.u.] -> [N]                                              8.23872205491840E-08
 [a.u.] -> [K]                                              3.15774647902944E+05
 [a.u.] -> [kJ/mol]                                         2.62549961709828E+03
 [a.u.] -> [kcal/mol]                                       6.27509468713739E+02
 [a.u.] -> [Pa]                                             2.94210107994716E+13
 [a.u.] -> [bar]                                            2.94210107994716E+08
 [a.u.] -> [atm]                                            2.90362800883016E+08
 [a.u.] -> [eV]                                             2.72113838565563E+01
 [a.u.] -> [Hz]                                             6.57968392072181E+15
 [a.u.] -> [1/cm] (wave numbers)                            2.19474631370540E+05
 [a.u./Bohr**2] -> [1/cm]                                   5.14048714338585E+03
 

 CELL_TOP| Volume [angstrom^3]:                                     17614.982639
 CELL_TOP| Vector a [angstrom    16.869     0.000     0.000   |a| =    16.869000
 CELL_TOP| Vector b [angstrom    -8.434    14.609     0.000   |b| =    16.869015
 CELL_TOP| Vector c [angstrom     0.000     0.000    71.478   |c| =    71.478000
 CELL_TOP| Angle (b,c), alpha [degree]:                                90.000000
 CELL_TOP| Angle (a,c), beta  [degree]:                                90.000000
 CELL_TOP| Angle (a,b), gamma [degree]:                               119.999970
 CELL_TOP| Numerically orthorhombic:                                          NO
 
 GENERATE|  Preliminary Number of Bonds generated:                             0
 GENERATE|  Achieved consistency in connectivity generation.

 CELL| Volume [angstrom^3]:                                         17614.982639
 CELL| Vector a [angstrom]:      16.869     0.000     0.000   |a| =    16.869000
 CELL| Vector b [angstrom]:      -8.434    14.609     0.000   |b| =    16.869015
 CELL| Vector c [angstrom]:       0.000     0.000    71.478   |c| =    71.478000
 CELL| Angle (b,c), alpha [degree]:                                    90.000000
 CELL| Angle (a,c), beta  [degree]:                                    90.000000
 CELL| Angle (a,b), gamma [degree]:                                   119.999970
 CELL| Numerically orthorhombic:                                              NO

 CELL_REF| Volume [angstrom^3]:                                     17614.982639
 CELL_REF| Vector a [angstrom    16.869     0.000     0.000   |a| =    16.869000
 CELL_REF| Vector b [angstrom    -8.434    14.609     0.000   |b| =    16.869015
 CELL_REF| Vector c [angstrom     0.000     0.000    71.478   |c| =    71.478000
 CELL_REF| Angle (b,c), alpha [degree]:                                90.000000
 CELL_REF| Angle (a,c), beta  [degree]:                                90.000000
 CELL_REF| Angle (a,b), gamma [degree]:                               119.999970
 CELL_REF| Numerically orthorhombic:                                          NO

 *******************************************************************************
 *******************************************************************************
 **                                                                           **
 **     #####                         ##              ##                      **
 **    ##   ##            ##          ##              ##                      **
 **   ##     ##                       ##            ######                    **
 **   ##     ##  ##   ##  ##   #####  ##  ##   ####   ##    #####    #####    **
 **   ##     ##  ##   ##  ##  ##      ## ##   ##      ##   ##   ##  ##   ##   **
 **   ##  ## ##  ##   ##  ##  ##      ####     ###    ##   ######   ######    **
 **    ##  ###   ##   ##  ##  ##      ## ##      ##   ##   ##       ##        **
 **     #######   #####   ##   #####  ##  ##  ####    ##    #####   ##        **
 **           ##                                                    ##        **
 **                                                                           **
 **                                                ... make the atoms dance   **
 **                                                                           **
 **            Copyright (C) by CP2K developers group (2000-2022)             **
 **                      J. Chem. Phys. 152, 194103 (2020)                    **
 **                                                                           **
 *******************************************************************************

 DFT| Spin restricted Kohn-Sham (RKS) calculation                            RKS
 DFT| Multiplicity                                                             1
 DFT| Number of spin states                                                    1
 DFT| Charge                                                                   0
 DFT| Self-interaction correction (SIC)                                       NO
 DFT| Cutoffs: density                                              1.000000E-10
 DFT|          gradient                                             1.000000E-10
 DFT|          tau                                                  1.000000E-10
 DFT|          cutoff_smoothing_range                               0.000000E+00
 DFT| XC density smoothing                                                  NONE
 DFT| XC derivatives                                                          PW

 FUNCTIONAL| PBE:
 FUNCTIONAL| J.P.Perdew, K.Burke, M.Ernzerhof, Phys. Rev. Letter, vol. 77, n 18,
 FUNCTIONAL|  pp. 3865-3868, (1996){spin unpolarized}                           

 vdW POTENTIAL|                                                   Pair Potential
 vdW POTENTIAL|          DFT-D3 (Version 3.1)
 vdW POTENTIAL|          Potential Form: S. Grimme et al, JCP 132: 154104 (2010)
 vdW POTENTIAL|          Zero Damping
 vdW POTENTIAL|          Cutoff Radius [Bohr]:                             20.00
 vdW POTENTIAL|          s6 Scaling Factor:                               1.0000
 vdW POTENTIAL|          sr6 Scaling Factor:                              1.2170
 vdW POTENTIAL|          s8 Scaling Factor:                               0.7220
 vdW POTENTIAL|          Cutoff for CN calculation:                   0.1000E-05

 QS| Method:                                                                 GPW
 QS| Density plane wave grid type                        NON-SPHERICAL FULLSPACE
 QS| Number of grid levels:                                                    4
 QS| Density cutoff [a.u.]:                                                200.0
 QS| Multi grid cutoff [a.u.]: 1) grid level                               200.0
 QS|                           2) grid level                                66.7
 QS|                           3) grid level                                22.2
 QS|                           4) grid level                                 7.4
 QS| Grid level progression factor:                                          3.0
 QS| Relative density cutoff [a.u.]:                                        20.0
 QS| Interaction thresholds: eps_pgf_orb:                                3.2E-07
 QS|                         eps_filter_matrix:                          0.0E+00
 QS|                         eps_core_charge:                            1.0E-15
 QS|                         eps_rho_gspace:                             1.0E-13
 QS|                         eps_rho_rspace:                             1.0E-13
 QS|                         eps_gvg_rspace:                             3.2E-07
 QS|                         eps_ppl:                                    1.0E-02
 QS|                         eps_ppnl:                                   3.2E-09


 ATOMIC KIND INFORMATION

  1. Atomic kind: O                                     Number of atoms:      99

     Orbital Basis Set                                        DZVP-MOLOPT-SR-GTH

       Number of orbital shell sets:                                           1
       Number of orbital shells:                                               5
       Number of primitive Cartesian functions:                                5
       Number of Cartesian basis functions:                                   14
       Number of spherical basis functions:                                   13
       Norm type:                                                              2

       Normalised Cartesian orbitals:

                        Set   Shell   Orbital            Exponent    Coefficient

                          1       1    2s               10.389228       0.396646
                                                         3.849621       0.208811
                                                         1.388401      -0.301641
                                                         0.496955      -0.274061
                                                         0.162492      -0.033677

                          1       2    3s               10.389228       0.303673
                                                         3.849621       0.240943
                                                         1.388401      -0.313066
                                                         0.496955      -0.043055
                                                         0.162492       0.213991

                          1       3    3px              10.389228      -1.530415
                                                         3.849621      -1.371928
                                                         1.388401      -0.761951
                                                         0.496955      -0.253695
                                                         0.162492      -0.035541
                          1       3    3py              10.389228      -1.530415
                                                         3.849621      -1.371928
                                                         1.388401      -0.761951
                                                         0.496955      -0.253695
                                                         0.162492      -0.035541
                          1       3    3pz              10.389228      -1.530415
                                                         3.849621      -1.371928
                                                         1.388401      -0.761951
                                                         0.496955      -0.253695
                                                         0.162492      -0.035541

                          1       4    4px              10.389228      -0.565392
                                                         3.849621      -0.038231
                                                         1.388401      -0.382373
                                                         0.496955       0.179070
                                                         0.162492       0.122714
                          1       4    4py              10.389228      -0.565392
                                                         3.849621      -0.038231
                                                         1.388401      -0.382373
                                                         0.496955       0.179070
                                                         0.162492       0.122714
                          1       4    4pz              10.389228      -0.565392
                                                         3.849621      -0.038231
                                                         1.388401      -0.382373
                                                         0.496955       0.179070
                                                         0.162492       0.122714

                          1       5    4dx2             10.389228       1.867377
                                                         3.849621       0.670994
                                                         1.388401       1.353441
                                                         0.496955       0.273538
                                                         0.162492       0.006620
                          1       5    4dxy             10.389228       3.234392
                                                         3.849621       1.162195
                                                         1.388401       2.344229
                                                         0.496955       0.473781
                                                         0.162492       0.011466
                          1       5    4dxz             10.389228       3.234392
                                                         3.849621       1.162195
                                                         1.388401       2.344229
                                                         0.496955       0.473781
                                                         0.162492       0.011466
                          1       5    4dy2             10.389228       1.867377
                                                         3.849621       0.670994
                                                         1.388401       1.353441
                                                         0.496955       0.273538
                                                         0.162492       0.006620
                          1       5    4dyz             10.389228       3.234392
                                                         3.849621       1.162195
                                                         1.388401       2.344229
                                                         0.496955       0.473781
                                                         0.162492       0.011466
                          1       5    4dz2             10.389228       1.867377
                                                         3.849621       0.670994
                                                         1.388401       1.353441
                                                         0.496955       0.273538
                                                         0.162492       0.006620

       Atomic covalent radius [Angstrom]:                                  0.730

       Atomic van der Waals radius [Angstrom]:                             1.520

     GTH Potential information for                                    GTH-PBE-q6

       Description:                       Goedecker-Teter-Hutter pseudopotential
                                           Goedecker et al., PRB 54, 1703 (1996)
                                          Hartwigsen et al., PRB 58, 3641 (1998)
                                                      Krack, TCA 114, 145 (2005)

       Gaussian exponent of the core charge distribution:               8.360253
       Electronic configuration (s p d ...):                               2   4

       Parameters of the local part of the GTH pseudopotential:

                          rloc        C1          C2          C3          C4
                        0.244554  -16.667215    2.487311

       Parameters of the non-local part of the GTH pseudopotential:

                   l      r(l)      h(i,j,l)

                   0    0.220956   18.337458
                   1    0.211332

  2. Atomic kind: H                                     Number of atoms:     198

     Orbital Basis Set                                        DZVP-MOLOPT-SR-GTH

       Number of orbital shell sets:                                           1
       Number of orbital shells:                                               3
       Number of primitive Cartesian functions:                                5
       Number of Cartesian basis functions:                                    5
       Number of spherical basis functions:                                    5
       Norm type:                                                              2

       Normalised Cartesian orbitals:

                        Set   Shell   Orbital            Exponent    Coefficient

                          1       1    2s               10.068468      -0.133023
                                                         2.680223      -0.177618
                                                         0.791502      -0.258419
                                                         0.239116      -0.107525
                                                         0.082193      -0.014019

                          1       2    3s               10.068468       0.344673
                                                         2.680223       1.819821
                                                         0.791502      -0.999069
                                                         0.239116       0.017430
                                                         0.082193       0.082660

                          1       3    3px              10.068468       0.155326
                                                         2.680223       0.367157
                                                         0.791502       0.311480
                                                         0.239116       0.080105
                                                         0.082193       0.033440
                          1       3    3py              10.068468       0.155326
                                                         2.680223       0.367157
                                                         0.791502       0.311480
                                                         0.239116       0.080105
                                                         0.082193       0.033440
                          1       3    3pz              10.068468       0.155326
                                                         2.680223       0.367157
                                                         0.791502       0.311480
                                                         0.239116       0.080105
                                                         0.082193       0.033440

       Atomic covalent radius [Angstrom]:                                  0.320

       Atomic van der Waals radius [Angstrom]:                             1.090

     GTH Potential information for                                    GTH-PBE-q1

       Description:                       Goedecker-Teter-Hutter pseudopotential
                                           Goedecker et al., PRB 54, 1703 (1996)
                                          Hartwigsen et al., PRB 58, 3641 (1998)
                                                      Krack, TCA 114, 145 (2005)

       Gaussian exponent of the core charge distribution:              12.500000
       Electronic configuration (s p d ...):                                   1

       Parameters of the local part of the GTH pseudopotential:

                          rloc        C1          C2          C3          C4
                        0.200000   -4.178900    0.724463

  3. Atomic kind: Pt                                    Number of atoms:     216

     Orbital Basis Set                      DZVP-A5-Q10-323-MOL-T1-DERIVED_SET-1

       Number of orbital shell sets:                                           1
       Number of orbital shells:                                               6
       Number of primitive Cartesian functions:                                5
       Number of Cartesian basis functions:                                   23
       Number of spherical basis functions:                                   20
       Norm type:                                                              2

       Normalised Cartesian orbitals:

                        Set   Shell   Orbital            Exponent    Coefficient

                          1       1    2s                2.521825       0.177473
                                                         1.453920      -0.063399
                                                         0.614053      -0.407089
                                                         0.232656       0.262254
                                                         0.074788       0.047371

                          1       2    3s                2.521825      -0.049056
                                                         1.453920       0.044904
                                                         0.614053      -0.009756
                                                         0.232656      -0.144709
                                                         0.074788       0.144085

                          1       3    3px               2.521825      -0.317572
                                                         1.453920       0.534826
                                                         0.614053      -0.489458
                                                         0.232656       0.245631
                                                         0.074788       0.018221
                          1       3    3py               2.521825      -0.317572
                                                         1.453920       0.534826
                                                         0.614053      -0.489458
                                                         0.232656       0.245631
                                                         0.074788       0.018221
                          1       3    3pz               2.521825      -0.317572
                                                         1.453920       0.534826
                                                         0.614053      -0.489458
                                                         0.232656       0.245631
                                                         0.074788       0.018221

                          1       4    4dx2              2.521825       3.008522
                                                         1.453920      -1.224251
                                                         0.614053       0.225691
                                                         0.232656       0.125144
                                                         0.074788      -0.015348
                          1       4    4dxy              2.521825       5.210912
                                                         1.453920      -2.120465
                                                         0.614053       0.390909
                                                         0.232656       0.216756
                                                         0.074788      -0.026584
                          1       4    4dxz              2.521825       5.210912
                                                         1.453920      -2.120465
                                                         0.614053       0.390909
                                                         0.232656       0.216756
                                                         0.074788      -0.026584
                          1       4    4dy2              2.521825       3.008522
                                                         1.453920      -1.224251
                                                         0.614053       0.225691
                                                         0.232656       0.125144
                                                         0.074788      -0.015348
                          1       4    4dyz              2.521825       5.210912
                                                         1.453920      -2.120465
                                                         0.614053       0.390909
                                                         0.232656       0.216756
                                                         0.074788      -0.026584
                          1       4    4dz2              2.521825       3.008522
                                                         1.453920      -1.224251
                                                         0.614053       0.225691
                                                         0.232656       0.125144
                                                         0.074788      -0.015348

                          1       5    5dx2              2.521825       0.698026
                                                         1.453920      -1.511486
                                                         0.614053      -0.335394
                                                         0.232656      -0.025564
                                                         0.074788      -0.002699
                          1       5    5dxy              2.521825       1.209017
                                                         1.453920      -2.617970
                                                         0.614053      -0.580920
                                                         0.232656      -0.044277
                                                         0.074788      -0.004674
                          1       5    5dxz              2.521825       1.209017
                                                         1.453920      -2.617970
                                                         0.614053      -0.580920
                                                         0.232656      -0.044277
                                                         0.074788      -0.004674
                          1       5    5dy2              2.521825       0.698026
                                                         1.453920      -1.511486
                                                         0.614053      -0.335394
                                                         0.232656      -0.025564
                                                         0.074788      -0.002699
                          1       5    5dyz              2.521825       1.209017
                                                         1.453920      -2.617970
                                                         0.614053      -0.580920
                                                         0.232656      -0.044277
                                                         0.074788      -0.004674
                          1       5    5dz2              2.521825       0.698026
                                                         1.453920      -1.511486
                                                         0.614053      -0.335394
                                                         0.232656      -0.025564
                                                         0.074788      -0.002699

                          1       6    6dx2              2.521825       0.831079
                                                         1.453920      -0.709226
                                                         0.614053      -0.137351
                                                         0.232656       0.068642
                                                         0.074788       0.011745
                          1       6    6dxy              2.521825       1.439472
                                                         1.453920      -1.228415
                                                         0.614053      -0.237899
                                                         0.232656       0.118891
                                                         0.074788       0.020343
                          1       6    6dxz              2.521825       1.439472
                                                         1.453920      -1.228415
                                                         0.614053      -0.237899
                                                         0.232656       0.118891
                                                         0.074788       0.020343
                          1       6    6dy2              2.521825       0.831079
                                                         1.453920      -0.709226
                                                         0.614053      -0.137351
                                                         0.232656       0.068642
                                                         0.074788       0.011745
                          1       6    6dyz              2.521825       1.439472
                                                         1.453920      -1.228415
                                                         0.614053      -0.237899
                                                         0.232656       0.118891
                                                         0.074788       0.020343
                          1       6    6dz2              2.521825       0.831079
                                                         1.453920      -0.709226
                                                         0.614053      -0.137351
                                                         0.232656       0.068642
                                                         0.074788       0.011745

       Atomic covalent radius [Angstrom]:                                  1.300

       Atomic van der Waals radius [Angstrom]:                             1.750

     GTH Potential information for                                   GTH-PBE-q10

       Description:                       Goedecker-Teter-Hutter pseudopotential
                                           Goedecker et al., PRB 54, 1703 (1996)
                                          Hartwigsen et al., PRB 58, 3641 (1998)
                                                      Krack, TCA 114, 145 (2005)

       Gaussian exponent of the core charge distribution:               1.317676
       Electronic configuration (s p d ...):                           1   0   9

       Parameters of the local part of the GTH pseudopotential:

                          rloc        C1          C2          C3          C4
                        0.616000   11.313635

       Parameters of the non-local part of the GTH pseudopotential:

                   l      r(l)      h(i,j,l)

                   0    0.550904    4.733491   -1.784594
                                   -1.784594    2.303901
                   1    0.674138    2.534798   -1.778066
                                   -1.778066    2.103836
                   2    0.457392   -7.264011    2.558665
                                    2.558665   -2.901253


 MOLECULE KIND INFORMATION


 All atoms are their own molecule, skipping detailed information


 TOTAL NUMBERS AND MAXIMUM NUMBERS

  Total number of            - Atomic kinds:                                   3
                             - Atoms:                                        513
                             - Shell sets:                                   513
                             - Shells:                                      2385
                             - Primitive Cartesian functions:               2565
                             - Cartesian basis functions:                   7344
                             - Spherical basis functions:                   6597

  Maximum angular momentum of- Orbital basis functions:                        2
                             - Local part of the GTH pseudopotential:          2
                             - Non-local part of the GTH pseudopotential:      4


 MODULE QUICKSTEP:  ATOMIC COORDINATES IN angstrom

 Atom  Kind  Element       X           Y           Z          Z(eff)       Mass
    1   1 O    8     -15.510001   13.410001   38.018000       6.0000     15.9994
    2   2 H    1     -16.400002   13.310001   37.637999       1.0000      1.0079
    3   2 H    1     -15.460001   13.210001   38.938000       1.0000      1.0079
    4   1 O    8     -16.680000  -11.430000   37.647999       6.0000     15.9994
    5   2 H    1     -16.610001  -11.960001   38.487999       1.0000      1.0079
    6   2 H    1     -16.600000  -10.490000   38.057999       1.0000      1.0079
    7   1 O    8       2.100000  -20.290001   32.887997       6.0000     15.9994
    8   2 H    1       1.550000  -19.970001   32.187998       1.0000      1.0079
    9   2 H    1       2.620000  -19.490002   33.188000       1.0000      1.0079
   10   1 O    8       0.600000   23.020000   30.387997       6.0000     15.9994
   11   2 H    1       0.070000   22.270000   30.147999       1.0000      1.0079
   12   2 H    1       1.510000   22.920000   29.957997       1.0000      1.0079
   13   1 O    8      -8.120001   20.580002   39.457999       6.0000     15.9994
   14   2 H    1      -7.280001   20.980000   39.217999       1.0000      1.0079
   15   2 H    1      -8.830000   21.260002   39.387999       1.0000      1.0079
   16   1 O    8     -20.050001   38.260002   30.387997       6.0000     15.9994
   17   2 H    1     -19.780001   38.170002   31.348000       1.0000      1.0079
   18   2 H    1      -2.960000   39.120003   29.998001       1.0000      1.0079
   19   1 O    8       3.340000   26.280001   34.357998       6.0000     15.9994
   20   2 H    1       3.740000   25.670002   35.057999       1.0000      1.0079
   21   2 H    1       2.890000   25.650002   33.737999       1.0000      1.0079
   22   1 O    8     -24.700001    0.750000   32.707999       6.0000     15.9994
   23   2 H    1     -24.320002   -0.150000   32.877999       1.0000      1.0079
   24   2 H    1     -25.750000    0.700000   32.817997       1.0000      1.0079
   25   1 O    8     -10.220001    2.970000   31.098000       6.0000     15.9994
   26   2 H    1      -9.960001    2.050000   31.317999       1.0000      1.0079
   27   2 H    1     -10.210000    3.470000   31.897999       1.0000      1.0079
   28   1 O    8      23.330002   29.780003   32.768000       6.0000     15.9994
   29   2 H    1      22.880001   28.890001   32.668000       1.0000      1.0079
   30   2 H    1      22.880001   30.190001   33.637999       1.0000      1.0079
   31   1 O    8     -23.030003   16.820000   33.487999       6.0000     15.9994
   32   2 H    1     -23.360003   17.780001   33.528000       1.0000      1.0079
   33   2 H    1     -23.360003   16.590000   34.387999       1.0000      1.0079
   34   1 O    8     -22.770002   11.250000   30.037999       6.0000     15.9994
   35   2 H    1     -31.460001   26.810001   30.087998       1.0000      1.0079
   36   2 H    1     -23.040001   10.960001   29.147999       1.0000      1.0079
   37   1 O    8      -5.760000    3.780000   36.348000       6.0000     15.9994
   38   2 H    1      -5.680000    3.110000   35.677998       1.0000      1.0079
   39   2 H    1      -6.600000    3.460000   36.797999       1.0000      1.0079
   40   1 O    8     -23.490002   15.390000   38.437998       6.0000     15.9994
   41   2 H    1     -22.740002   14.780001   38.397999       1.0000      1.0079
   42   2 H    1     -24.150002   14.850000   39.027998       1.0000      1.0079
   43   1 O    8      -3.140000   11.630001   29.758000       6.0000     15.9994
   44   2 H    1      -4.150000   11.650001   29.627999       1.0000      1.0079
   45   2 H    1      -2.840000   11.510000   28.758000       1.0000      1.0079
   46   1 O    8     -26.660002   18.720001   37.528000       6.0000     15.9994
   47   2 H    1     -26.360001   18.020000   36.918000       1.0000      1.0079
   48   2 H    1     -25.910000   18.950001   38.147999       1.0000      1.0079
   49   1 O    8      -8.430000    5.810000   38.787999       6.0000     15.9994
   50   2 H    1      -8.090000    5.590000   39.748000       1.0000      1.0079
   51   2 H    1      -9.420000    5.770000   38.857998       1.0000      1.0079
   52   1 O    8     -31.470001  -18.420002   37.707999       6.0000     15.9994
   53   2 H    1     -31.680002  -18.840000   36.868000       1.0000      1.0079
   54   2 H    1     -31.690002  -17.450001   37.768000       1.0000      1.0079
   55   1 O    8      46.000004   -4.270000   34.037999       6.0000     15.9994
   56   2 H    1      46.150002   -3.260000   34.097998       1.0000      1.0079
   57   2 H    1      46.750000   -4.670000   33.437998       1.0000      1.0079
   58   1 O    8     -41.700001    4.990000   34.807999       6.0000     15.9994
   59   2 H    1     -24.620001    4.590000   35.697998       1.0000      1.0079
   60   2 H    1     -25.080002    5.980001   34.817999       1.0000      1.0079
   61   1 O    8      -7.910000   26.660002   30.487997       6.0000     15.9994
   62   2 H    1      -8.680000   27.240002   30.317997       1.0000      1.0079
   63   2 H    1      -7.680000   26.860001   31.397999       1.0000      1.0079
   64   1 O    8      16.720001   10.060000   38.897999       6.0000     15.9994
   65   2 H    1      16.190001    9.330000   38.567999       1.0000      1.0079
   66   2 H    1      17.590000   10.060000   38.498000       1.0000      1.0079
   67   1 O    8      14.100000   -8.380001   39.178000       6.0000     15.9994
   68   2 H    1      13.420000   -9.110001   39.147999       1.0000      1.0079
   69   2 H    1      14.060000   -7.890000   38.327999       1.0000      1.0079
   70   1 O    8       7.420001   20.350000   33.867998       6.0000     15.9994
   71   2 H    1       6.640000   19.830000   33.537999       1.0000      1.0079
   72   2 H    1       7.130001   20.740002   34.708000       1.0000      1.0079
   73   1 O    8     -18.270000   21.310001   30.057999       6.0000     15.9994
   74   2 H    1     -17.640001   20.510002   30.057999       1.0000      1.0079
   75   2 H    1     -18.720001   21.230001   29.157997       1.0000      1.0079
   76   1 O    8      -3.000000  -16.720001   32.758000       6.0000     15.9994
   77   2 H    1      -3.830000  -16.960001   33.297999       1.0000      1.0079
   78   2 H    1      -3.260000  -16.980001   31.848000       1.0000      1.0079
   79   1 O    8      15.380001    7.740001   38.688000       6.0000     15.9994
   80   2 H    1      15.260000    7.130001   37.838000       1.0000      1.0079
   81   2 H    1      14.440001    7.590001   39.108000       1.0000      1.0079
   82   1 O    8     -13.750001   22.590000   29.408001       6.0000     15.9994
   83   2 H    1     -13.470001   21.610001   29.598000       1.0000      1.0079
   84   2 H    1     -12.950001   23.110001   29.807999       1.0000      1.0079
   85   1 O    8      -0.890000    0.270000   29.918000       6.0000     15.9994
   86   2 H    1      -0.410000    0.420000   29.017998       1.0000      1.0079
   87   2 H    1      -0.420000    0.500000   30.777998       1.0000      1.0079
   88   1 O    8       1.040000   31.220001   36.088000       6.0000     15.9994
   89   2 H    1       1.290000   30.730001   36.877999       1.0000      1.0079
   90   2 H    1       0.040000   31.210001   35.967999       1.0000      1.0079
   91   1 O    8      -1.590000    2.060000   35.737999       6.0000     15.9994
   92   2 H    1      -9.950001   16.390001   34.817999       1.0000      1.0079
   93   2 H    1      -1.920000    1.280000   36.278000       1.0000      1.0079
   94   1 O    8      23.420000   -5.470000   35.368000       6.0000     15.9994
   95   2 H    1      23.160002   -5.890000   34.557999       1.0000      1.0079
   96   2 H    1      24.290001   -5.910000   35.697998       1.0000      1.0079
   97   1 O    8       2.580000   -6.470000   37.998000       6.0000     15.9994
   98   2 H    1       3.190000   -5.630000   37.698000       1.0000      1.0079
   99   2 H    1       2.760000   -7.060000   37.228001       1.0000      1.0079
  100   1 O    8      18.060001    5.830000   30.208001       6.0000     15.9994
  101   2 H    1      18.360001    5.490000   29.318001       1.0000      1.0079
  102   2 H    1      17.230000    6.340000   29.918000       1.0000      1.0079
  103   1 O    8       1.350000  -16.700001   33.168000       6.0000     15.9994
  104   2 H    1       2.180000  -16.430000   33.647999       1.0000      1.0079
  105   2 H    1       0.710000  -17.110001   33.778000       1.0000      1.0079
  106   1 O    8      28.549999   -2.940000   30.027996       6.0000     15.9994
  107   2 H    1      28.570002   -2.950000   29.048001       1.0000      1.0079
  108   2 H    1      27.590000   -2.930000   30.027996       1.0000      1.0079
  109   1 O    8      -6.980000   13.570002   34.848000       6.0000     15.9994
  110   2 H    1      -7.550001   13.860001   35.598000       1.0000      1.0079
  111   2 H    1      -6.410000   12.770000   34.938000       1.0000      1.0079
  112   1 O    8      19.950001   -7.160000   33.367998       6.0000     15.9994
  113   2 H    1      19.330002   -6.420000   33.047999       1.0000      1.0079
  114   2 H    1      19.850002   -7.990000   32.897999       1.0000      1.0079
  115   1 O    8      12.500000   17.889999   30.138001       6.0000     15.9994
  116   2 H    1      12.780001   17.030001   29.677998       1.0000      1.0079
  117   2 H    1      13.160001   17.880001   30.897999       1.0000      1.0079
  118   1 O    8       6.790000   12.670001   34.638001       6.0000     15.9994
  119   2 H    1       7.060000   12.710000   35.508000       1.0000      1.0079
  120   2 H    1       5.770000   12.750001   34.497998       1.0000      1.0079
  121   1 O    8       1.980000    4.290000   36.918000       6.0000     15.9994
  122   2 H    1       1.530000    3.510000   36.518000       1.0000      1.0079
  123   2 H    1       1.380000    5.060000   36.737999       1.0000      1.0079
  124   1 O    8       5.930000  -12.150001   29.208001       6.0000     15.9994
  125   2 H    1       6.750000  -11.770000   29.657997       1.0000      1.0079
  126   2 H    1       5.910000  -13.080001   29.377999       1.0000      1.0079
  127   1 O    8     -22.180002   40.970001   38.948000       6.0000     15.9994
  128   2 H    1     -21.660002   41.800003   39.168000       1.0000      1.0079
  129   2 H    1     -22.160000   40.450001   39.768000       1.0000      1.0079
  130   1 O    8      -8.150001    9.130000   36.938000       6.0000     15.9994
  131   2 H    1      -7.470000    8.690001   37.508000       1.0000      1.0079
  132   2 H    1      -9.000000    8.720000   37.068001       1.0000      1.0079
  133   1 O    8      14.800000   18.850000   33.507998       6.0000     15.9994
  134   2 H    1      22.800003    5.130000   33.318001       1.0000      1.0079
  135   2 H    1      -1.160000   19.080002   33.927998       1.0000      1.0079
  136   1 O    8      13.030001    0.930000   39.418000       6.0000     15.9994
  137   2 H    1      12.850000    1.870000   39.307999       1.0000      1.0079
  138   2 H    1      13.500000    0.660000   38.607998       1.0000      1.0079
  139   1 O    8      -0.370000   -2.370000   30.677998       6.0000     15.9994
  140   2 H    1      -0.530000   -1.420000   30.688000       1.0000      1.0079
  141   2 H    1      -0.620000   -2.770000   31.518000       1.0000      1.0079
  142   1 O    8       9.660000    1.400000   30.077999       6.0000     15.9994
  143   2 H    1      10.450001    0.860000   29.758000       1.0000      1.0079
  144   2 H    1       9.460000    1.330000   31.048001       1.0000      1.0079
  145   1 O    8       0.190000   19.230001   30.047997       6.0000     15.9994
  146   2 H    1      -0.530000   18.570002   30.267998       1.0000      1.0079
  147   2 H    1       0.760000   18.860001   29.388001       1.0000      1.0079
  148   1 O    8     -29.390001    5.620000   29.048001       6.0000     15.9994
  149   2 H    1     -30.170002    6.160001   29.287999       1.0000      1.0079
  150   2 H    1     -29.570004    4.680000   29.258000       1.0000      1.0079
  151   1 O    8     -16.970001   -7.000000   34.668000       6.0000     15.9994
  152   2 H    1     -17.880001   -6.750000   34.427998       1.0000      1.0079
  153   2 H    1     -16.710001   -6.400001   35.388001       1.0000      1.0079
  154   1 O    8       2.510000   -0.630000   29.778000       6.0000     15.9994
  155   2 H    1       1.970000   -0.340000   30.567999       1.0000      1.0079
  156   2 H    1       1.880000   -0.650000   28.987999       1.0000      1.0079
  157   1 O    8       3.820000   -8.290001   35.848000       6.0000     15.9994
  158   2 H    1       3.580000   -9.200000   35.998000       1.0000      1.0079
  159   2 H    1       3.420000   -7.880001   35.028000       1.0000      1.0079
  160   1 O    8      -0.610000   -4.050000   33.088000       6.0000     15.9994
  161   2 H    1      -0.850000   -3.380000   33.807999       1.0000      1.0079
  162   2 H    1      -1.380000   -4.680000   32.958000       1.0000      1.0079
  163   1 O    8      11.280001   21.160002   31.897999       6.0000     15.9994
  164   2 H    1      10.890001   21.910002   32.357998       1.0000      1.0079
  165   2 H    1      10.530001   20.889999   31.217999       1.0000      1.0079
  166   1 O    8      20.910000   42.420002   34.227999       6.0000     15.9994
  167   2 H    1      21.060001   43.139999   33.518000       1.0000      1.0079
  168   2 H    1      20.690001   43.000000   35.037999       1.0000      1.0079
  169   1 O    8      19.440001  -12.950001   34.477999       6.0000     15.9994
  170   2 H    1      18.570002  -13.090000   34.018000       1.0000      1.0079
  171   2 H    1      20.080002  -13.000001   33.767998       1.0000      1.0079
  172   1 O    8      -6.340000    9.660000   32.677998       6.0000     15.9994
  173   2 H    1      -7.280001    9.840000   32.628001       1.0000      1.0079
  174   2 H    1       2.460000   -4.760000   31.817999       1.0000      1.0079
  175   1 O    8      -3.790000    7.500000   39.798001       6.0000     15.9994
  176   2 H    1      -4.560000    7.680000   39.138001       1.0000      1.0079
  177   2 H    1      -3.950000    6.610000   40.198000       1.0000      1.0079
  178   1 O    8     -18.070000    7.000000   29.668000       6.0000     15.9994
  179   2 H    1     -18.200001    7.190001   28.717999       1.0000      1.0079
  180   2 H    1     -18.860001    7.580000   30.017998       1.0000      1.0079
  181   1 O    8       3.060000   18.060001   29.458001       6.0000     15.9994
  182   2 H    1       2.260000   17.420002   29.567997       1.0000      1.0079
  183   2 H    1      12.360001    3.000000   29.467999       1.0000      1.0079
  184   1 O    8      -3.430000    4.470000   33.127999       6.0000     15.9994
  185   2 H    1      -3.390000    4.480000   32.117998       1.0000      1.0079
  186   2 H    1      -4.370000    4.440001   33.388001       1.0000      1.0079
  187   1 O    8       5.700001    9.030001   32.537999       6.0000     15.9994
  188   2 H    1       5.400000    9.130000   31.577999       1.0000      1.0079
  189   2 H    1       5.620000    8.080000   32.557999       1.0000      1.0079
  190   1 O    8     -10.900001    2.740000   37.228001       6.0000     15.9994
  191   2 H    1      -9.990001    3.050000   37.057999       1.0000      1.0079
  192   2 H    1     -11.260000    2.280000   36.427998       1.0000      1.0079
  193   1 O    8      21.210001   18.320002   38.428000       6.0000     15.9994
  194   2 H    1      20.600002   18.330000   37.628001       1.0000      1.0079
  195   2 H    1      22.160000   18.240002   38.137999       1.0000      1.0079
  196   1 O    8       4.670000    9.400001   30.208001       6.0000     15.9994
  197   2 H    1       5.450000    9.460000   29.557999       1.0000      1.0079
  198   2 H    1       4.320000   10.300001   30.407997       1.0000      1.0079
  199   1 O    8      -7.850000   -5.670000   30.157997       6.0000     15.9994
  200   2 H    1      -8.330001   -4.830000   29.918000       1.0000      1.0079
  201   2 H    1      -8.470000   -6.400001   29.967999       1.0000      1.0079
  202   1 O    8      -2.260000   -6.510000   37.017998       6.0000     15.9994
  203   2 H    1      -2.840000   -5.630000   37.157997       1.0000      1.0079
  204   2 H    1      -2.690000   -6.930000   36.317999       1.0000      1.0079
  205   1 O    8      -1.310000   44.310001   39.217999       6.0000     15.9994
  206   2 H    1      -1.590000   44.250000   38.267998       1.0000      1.0079
  207   2 H    1      -1.200000   43.330002   39.438000       1.0000      1.0079
  208   1 O    8      -4.300000   47.850002   38.407997       6.0000     15.9994
  209   2 H    1      -5.170000   47.900005   37.877999       1.0000      1.0079
  210   2 H    1      -3.580000   47.369999   37.897999       1.0000      1.0079
  211   1 O    8      -2.800000    7.970000   32.887997       6.0000     15.9994
  212   2 H    1     -10.740000   21.750002   32.987999       1.0000      1.0079
  213   2 H    1      -3.790000    7.720000   33.008000       1.0000      1.0079
  214   1 O    8       4.640000   10.120001   36.708001       6.0000     15.9994
  215   2 H    1      -4.130000   24.670000   35.788000       1.0000      1.0079
  216   2 H    1      -4.530000   25.150002   37.278000       1.0000      1.0079
  217   1 O    8      -2.770000    0.130000   37.307999       6.0000     15.9994
  218   2 H    1      -3.660000   -0.050000   36.957999       1.0000      1.0079
  219   2 H    1      -2.340000   -0.830000   37.537999       1.0000      1.0079
  220   1 O    8     -37.480003   29.880001   32.477999       6.0000     15.9994
  221   2 H    1     -36.799999   30.570002   32.647999       1.0000      1.0079
  222   2 H    1     -37.680000   29.780003   31.548001       1.0000      1.0079
  223   1 O    8      -1.220000    1.760000   33.197998       6.0000     15.9994
  224   2 H    1      -0.890000    2.570000   32.787999       1.0000      1.0079
  225   2 H    1      -0.400000    1.230000   33.057999       1.0000      1.0079
  226   1 O    8       1.650000    4.680000   33.867998       6.0000     15.9994
  227   2 H    1       2.010000    5.230000   33.157999       1.0000      1.0079
  228   2 H    1       0.730000    4.940000   33.937998       1.0000      1.0079
  229   1 O    8     -13.740001   14.530001   36.538000       6.0000     15.9994
  230   2 H    1     -14.060000   15.400001   36.147999       1.0000      1.0079
  231   2 H    1     -14.460001   14.270000   37.228001       1.0000      1.0079
  232   1 O    8      13.150001  -23.350000   30.127999       6.0000     15.9994
  233   2 H    1      13.940001  -23.390003   29.497998       1.0000      1.0079
  234   2 H    1      12.580000  -24.060001   29.797997       1.0000      1.0079
  235   1 O    8       1.010000    0.190000   32.327998       6.0000     15.9994
  236   2 H    1       1.660000    0.910000   32.477999       1.0000      1.0079
  237   2 H    1       1.090000   -0.240000   33.247998       1.0000      1.0079
  238   1 O    8      -6.790000   17.200001   30.257996       6.0000     15.9994
  239   2 H    1      -5.840001   17.410000   30.537999       1.0000      1.0079
  240   2 H    1      -6.650000   17.070002   29.287999       1.0000      1.0079
  241   1 O    8      22.350002    6.330000   32.178000       6.0000     15.9994
  242   2 H    1      23.030003    6.330000   31.427998       1.0000      1.0079
  243   2 H    1      21.360001    6.340000   31.887999       1.0000      1.0079
  244   1 O    8      38.300003    0.860000   29.057999       6.0000     15.9994
  245   2 H    1      37.640003    0.180000   29.197998       1.0000      1.0079
  246   2 H    1      39.230000    0.470000   29.337998       1.0000      1.0079
  247   1 O    8       3.360000  -22.180002   35.317997       6.0000     15.9994
  248   2 H    1       3.170000  -21.620003   34.587998       1.0000      1.0079
  249   2 H    1       3.420000  -23.059999   34.838000       1.0000      1.0079
  250   1 O    8      -4.350000    9.990001   36.907999       6.0000     15.9994
  251   2 H    1      -4.680000   10.710001   37.587998       1.0000      1.0079
  252   2 H    1      -3.340000   10.030001   36.977999       1.0000      1.0079
  253   1 O    8      -0.630000    3.680000   30.827999       6.0000     15.9994
  254   2 H    1      -8.170000   18.070000   30.487997       1.0000      1.0079
  255   2 H    1      -0.540000    4.630000   30.907997       1.0000      1.0079
  256   1 O    8     -18.880001    6.310000   36.408001       6.0000     15.9994
  257   2 H    1     -19.850002    6.280000   36.048001       1.0000      1.0079
  258   2 H    1     -18.700001    5.370000   36.667998       1.0000      1.0079
  259   1 O    8       7.180000   -0.380000   29.647999       6.0000     15.9994
  260   2 H    1       7.800000    0.330000   29.848000       1.0000      1.0079
  261   2 H    1       7.240000   -0.800000   28.727997       1.0000      1.0079
  262   1 O    8     -13.920001    7.900000   29.067997       6.0000     15.9994
  263   2 H    1     -13.300000    8.600000   29.537999       1.0000      1.0079
  264   2 H    1     -14.800000    8.320000   29.137997       1.0000      1.0079
  265   1 O    8      -9.840000   10.200001   29.397999       6.0000     15.9994
  266   2 H    1      -9.040001    9.670001   29.708001       1.0000      1.0079
  267   2 H    1      -9.520000   11.090001   29.647999       1.0000      1.0079
  268   1 O    8      -9.740001   27.840002   36.748000       6.0000     15.9994
  269   2 H    1     -10.400001   27.310001   37.098000       1.0000      1.0079
  270   2 H    1      -9.610001   27.390001   35.918000       1.0000      1.0079
  271   1 O    8      13.620001   16.660002   34.647999       6.0000     15.9994
  272   2 H    1      12.650002   16.670000   34.217999       1.0000      1.0079
  273   2 H    1      13.980001   17.620001   34.468001       1.0000      1.0079
  274   1 O    8      18.780001   19.640001   32.728001       6.0000     15.9994
  275   2 H    1      18.060001   19.450001   32.077999       1.0000      1.0079
  276   2 H    1      18.280001   19.650002   33.588000       1.0000      1.0079
  277   1 O    8     -10.120001   12.720001   38.507998       6.0000     15.9994
  278   2 H    1      -9.280001   12.330000   38.018000       1.0000      1.0079
  279   2 H    1     -10.390000   11.970000   39.057999       1.0000      1.0079
  280   1 O    8       0.570000   26.360001   37.477999       6.0000     15.9994
  281   2 H    1       1.230000   26.490002   38.137999       1.0000      1.0079
  282   2 H    1       0.550000   25.370003   37.418000       1.0000      1.0079
  283   1 O    8      12.000000   -0.040000   29.827999       6.0000     15.9994
  284   2 H    1      -5.090000   -1.060000   29.887997       1.0000      1.0079
  285   2 H    1      11.970000    0.120000   28.818001       1.0000      1.0079
  286   1 O    8       9.450001   23.620003   35.897999       6.0000     15.9994
  287   2 H    1       9.650001   23.490002   34.967999       1.0000      1.0079
  288   2 H    1      10.060000   22.970001   36.327999       1.0000      1.0079
  289   1 O    8     -17.770000   11.750001   34.638001       6.0000     15.9994
  290   2 H    1     -18.320002   11.970000   33.878001       1.0000      1.0079
  291   2 H    1     -18.110001   10.880001   34.957999       1.0000      1.0079
  292   1 O    8       3.890000    8.970000   39.827999       6.0000     15.9994
  293   2 H    1       3.490000    9.770000   40.198000       1.0000      1.0079
  294   2 H    1       4.300000    8.440001   40.487999       1.0000      1.0079
  295   1 O    8       2.730000    7.600000   37.707999       6.0000     15.9994
  296   2 H    1       3.360000    7.420001   37.098000       1.0000      1.0079
  297   2 H    1       3.110000    8.000000   38.537999       1.0000      1.0079
  298   3 Pt  78       1.630000    0.730000   26.767998      10.0000    195.0840
  299   3 Pt  78       4.460000    0.740000   26.707997      10.0000    195.0840
  300   3 Pt  78       7.390000    0.850000   26.717999      10.0000    195.0840
  301   3 Pt  78      10.180000    0.820000   26.697998      10.0000    195.0840
  302   3 Pt  78      12.850000    0.820000   26.668000      10.0000    195.0840
  303   3 Pt  78      15.700001    0.840000   26.737999      10.0000    195.0840
  304   3 Pt  78       3.000000    3.190000   26.908001      10.0000    195.0840
  305   3 Pt  78       5.830000    3.310000   26.748001      10.0000    195.0840
  306   3 Pt  78       8.660001    3.320000   26.748001      10.0000    195.0840
  307   3 Pt  78      11.440001    3.350000   26.837998      10.0000    195.0840
  308   3 Pt  78      14.160000    3.300000   26.668000      10.0000    195.0840
  309   3 Pt  78       0.140000    3.190000   26.818001      10.0000    195.0840
  310   3 Pt  78       4.330000    5.620000   26.857998      10.0000    195.0840
  311   3 Pt  78       7.250000    5.680000   26.818001      10.0000    195.0840
  312   3 Pt  78      10.010000    5.860000   26.818001      10.0000    195.0840
  313   3 Pt  78      12.880001    5.690000   26.737999      10.0000    195.0840
  314   3 Pt  78      -1.160000    5.590000   26.717999      10.0000    195.0840
  315   3 Pt  78       1.510000    5.600000   26.987999      10.0000    195.0840
  316   3 Pt  78       5.870000    8.130000   26.727997      10.0000    195.0840
  317   3 Pt  78       8.630000    8.190001   26.867997      10.0000    195.0840
  318   3 Pt  78      11.480000    8.160001   26.997998      10.0000    195.0840
  319   3 Pt  78      -2.590000    8.030001   26.818001      10.0000    195.0840
  320   3 Pt  78       0.060000    8.060000   26.807999      10.0000    195.0840
  321   3 Pt  78       3.040000    8.010000   26.748001      10.0000    195.0840
  322   3 Pt  78       7.160000   10.610001   26.867997      10.0000    195.0840
  323   3 Pt  78      10.020000   10.530001   26.857998      10.0000    195.0840
  324   3 Pt  78      -4.020000   10.470000   26.848000      10.0000    195.0840
  325   3 Pt  78      -1.230000   10.559999   26.707997      10.0000    195.0840
  326   3 Pt  78       1.570000   10.430001   26.697998      10.0000    195.0840
  327   3 Pt  78       4.400000   10.540000   26.827999      10.0000    195.0840
  328   3 Pt  78       8.620001   12.960000   26.908001      10.0000    195.0840
  329   3 Pt  78      -5.360000   12.890000   26.758000      10.0000    195.0840
  330   3 Pt  78      -2.580000   12.980001   26.598000      10.0000    195.0840
  331   3 Pt  78       0.280000   12.960000   26.748001      10.0000    195.0840
  332   3 Pt  78       2.980000   12.980001   26.787999      10.0000    195.0840
  333   3 Pt  78       5.850000   12.990000   26.697998      10.0000    195.0840
  334   3 Pt  78       0.200000    1.650000   24.357998      10.0000    195.0840
  335   3 Pt  78       3.070000    1.650000   24.437996      10.0000    195.0840
  336   3 Pt  78       5.980001    1.510000   24.447998      10.0000    195.0840
  337   3 Pt  78       8.760000    1.570000   24.367997      10.0000    195.0840
  338   3 Pt  78      11.510000    1.780000   24.478001      10.0000    195.0840
  339   3 Pt  78      14.240000    1.700000   24.348000      10.0000    195.0840
  340   3 Pt  78       1.660000    4.170000   24.508000      10.0000    195.0840
  341   3 Pt  78       4.550000    3.990000   24.447998      10.0000    195.0840
  342   3 Pt  78       7.270000    4.020000   24.437996      10.0000    195.0840
  343   3 Pt  78      10.040001    4.140000   24.528000      10.0000    195.0840
  344   3 Pt  78      12.870001    4.040000   24.367997      10.0000    195.0840
  345   3 Pt  78      -1.110000    4.020000   24.337998      10.0000    195.0840
  346   3 Pt  78       3.100000    6.490001   24.517998      10.0000    195.0840
  347   3 Pt  78       5.820000    6.420000   24.467999      10.0000    195.0840
  348   3 Pt  78       8.570001    6.450000   24.467999      10.0000    195.0840
  349   3 Pt  78      11.460000    6.460000   24.517998      10.0000    195.0840
  350   3 Pt  78      -2.590000    6.340000   24.427998      10.0000    195.0840
  351   3 Pt  78       0.270000    6.500000   24.357998      10.0000    195.0840
  352   3 Pt  78       4.450000    8.960000   24.427998      10.0000    195.0840
  353   3 Pt  78       7.180000    8.870000   24.528000      10.0000    195.0840
  354   3 Pt  78       9.940001    8.770000   24.437996      10.0000    195.0840
  355   3 Pt  78      -3.990000    8.830000   24.577999      10.0000    195.0840
  356   3 Pt  78      -1.130000    8.790001   24.397999      10.0000    195.0840
  357   3 Pt  78       1.600000    8.920000   24.388001      10.0000    195.0840
  358   3 Pt  78       5.920000   11.420001   24.458001      10.0000    195.0840
  359   3 Pt  78       8.590000   11.260000   24.627999      10.0000    195.0840
  360   3 Pt  78      -5.460000   11.170001   24.548001      10.0000    195.0840
  361   3 Pt  78      -2.590000   11.180000   24.367997      10.0000    195.0840
  362   3 Pt  78       0.190000   11.380000   24.367997      10.0000    195.0840
  363   3 Pt  78       3.080000   11.350001   24.447998      10.0000    195.0840
  364   3 Pt  78       7.240000   13.860001   24.418000      10.0000    195.0840
  365   3 Pt  78      -6.690001   13.730000   24.557999      10.0000    195.0840
  366   3 Pt  78      -3.920000   13.670001   24.418000      10.0000    195.0840
  367   3 Pt  78      -1.100000   13.780001   24.478001      10.0000    195.0840
  368   3 Pt  78       1.660000   13.760000   24.278000      10.0000    195.0840
  369   3 Pt  78       4.410000   13.810000   24.357998      10.0000    195.0840
  370   3 Pt  78      -8.270000   14.510001   22.157997      10.0000    195.0840
  371   3 Pt  78      -5.420001   14.560001   22.217999      10.0000    195.0840
  372   3 Pt  78      -2.530000   14.400001   22.168000      10.0000    195.0840
  373   3 Pt  78       0.150000   14.430000   22.047997      10.0000    195.0840
  374   3 Pt  78       3.020000   14.520000   22.107998      10.0000    195.0840
  375   3 Pt  78       5.820000   14.550000   22.037999      10.0000    195.0840
  376   3 Pt  78       1.570000    2.430000   22.208001      10.0000    195.0840
  377   3 Pt  78       4.430000    2.390000   22.127999      10.0000    195.0840
  378   3 Pt  78       7.220001    2.360000   22.017998      10.0000    195.0840
  379   3 Pt  78      10.010000    2.240000   22.098000      10.0000    195.0840
  380   3 Pt  78      12.860001    2.350000   22.008000      10.0000    195.0840
  381   3 Pt  78      -1.210000    2.350000   22.037999      10.0000    195.0840
  382   3 Pt  78       3.130000    4.810000   22.177998      10.0000    195.0840
  383   3 Pt  78       5.900001    4.840000   22.117997      10.0000    195.0840
  384   3 Pt  78       8.700001    4.790000   22.068001      10.0000    195.0840
  385   3 Pt  78      11.330000    4.850000   22.047997      10.0000    195.0840
  386   3 Pt  78      -2.610000    4.770000   22.068001      10.0000    195.0840
  387   3 Pt  78       0.230000    4.720000   22.138001      10.0000    195.0840
  388   3 Pt  78       4.380000    7.290000   22.157997      10.0000    195.0840
  389   3 Pt  78       7.230001    7.230001   22.127999      10.0000    195.0840
  390   3 Pt  78      10.040001    7.360001   22.177998      10.0000    195.0840
  391   3 Pt  78      -4.050000    7.220001   22.107998      10.0000    195.0840
  392   3 Pt  78      -1.180000    7.170000   22.077999      10.0000    195.0840
  393   3 Pt  78       1.600000    7.160000   22.147999      10.0000    195.0840
  394   3 Pt  78       5.800000    9.720000   22.117997      10.0000    195.0840
  395   3 Pt  78       8.660001    9.720000   22.208001      10.0000    195.0840
  396   3 Pt  78      -5.390000    9.670001   22.267998      10.0000    195.0840
  397   3 Pt  78      -2.590000    9.570000   22.157997      10.0000    195.0840
  398   3 Pt  78       0.270000    9.620001   22.117997      10.0000    195.0840
  399   3 Pt  78       3.030000    9.670001   22.068001      10.0000    195.0840
  400   3 Pt  78       7.190001   12.150001   22.127999      10.0000    195.0840
  401   3 Pt  78      -6.920000   12.090001   22.247998      10.0000    195.0840
  402   3 Pt  78      -4.020000   11.990000   22.147999      10.0000    195.0840
  403   3 Pt  78      -1.200000   12.010001   22.138001      10.0000    195.0840
  404   3 Pt  78       1.580000   12.110001   22.057999      10.0000    195.0840
  405   3 Pt  78       4.350000   12.110001   22.077999      10.0000    195.0840
  406   3 Pt  78       1.550000    0.700000   19.910000      10.0000    195.0840
  407   3 Pt  78       4.440001    0.620000   19.960000      10.0000    195.0840
  408   3 Pt  78       7.210000    0.710000   19.830001      10.0000    195.0840
  409   3 Pt  78       9.980000    0.650000   19.740000      10.0000    195.0840
  410   3 Pt  78      12.780001    0.620000   19.710001      10.0000    195.0840
  411   3 Pt  78      15.550001    0.700000   19.780000      10.0000    195.0840
  412   3 Pt  78       2.990000    3.050000   19.850000      10.0000    195.0840
  413   3 Pt  78       5.750000    3.100000   19.750000      10.0000    195.0840
  414   3 Pt  78       8.540000    3.210000   19.820000      10.0000    195.0840
  415   3 Pt  78      11.360001    3.080000   19.800000      10.0000    195.0840
  416   3 Pt  78      14.140000    3.100000   19.710001      10.0000    195.0840
  417   3 Pt  78       0.190000    3.070000   19.780000      10.0000    195.0840
  418   3 Pt  78       4.400000    5.560000   19.810000      10.0000    195.0840
  419   3 Pt  78       7.140000    5.680000   19.820000      10.0000    195.0840
  420   3 Pt  78       9.920000    5.660000   19.760000      10.0000    195.0840
  421   3 Pt  78      12.740001    5.490000   19.830001      10.0000    195.0840
  422   3 Pt  78      -1.210000    5.530000   19.820000      10.0000    195.0840
  423   3 Pt  78       1.630000    5.450000   19.830001      10.0000    195.0840
  424   3 Pt  78       5.770000    8.060000   19.860001      10.0000    195.0840
  425   3 Pt  78       8.620001    8.090000   19.860001      10.0000    195.0840
  426   3 Pt  78      11.400002    8.020000   19.860001      10.0000    195.0840
  427   3 Pt  78      -2.730000    7.980001   19.860001      10.0000    195.0840
  428   3 Pt  78       0.180000    7.900000   19.830001      10.0000    195.0840
  429   3 Pt  78       3.050000    7.990000   19.760000      10.0000    195.0840
  430   3 Pt  78       7.170000   10.510000   19.870000      10.0000    195.0840
  431   3 Pt  78       9.950001   10.420000   19.970001      10.0000    195.0840
  432   3 Pt  78      -4.000000   10.420000   19.920000      10.0000    195.0840
  433   3 Pt  78      -1.230000   10.370001   19.810000      10.0000    195.0840
  434   3 Pt  78       1.510000   10.480001   19.790000      10.0000    195.0840
  435   3 Pt  78       4.300000   10.420000   19.850000      10.0000    195.0840
  436   3 Pt  78       8.560000   12.900001   19.820000      10.0000    195.0840
  437   3 Pt  78      -5.520000   12.800001   20.050000      10.0000    195.0840
  438   3 Pt  78      -2.670000   12.810000   19.760000      10.0000    195.0840
  439   3 Pt  78       0.040000   12.850000   19.750000      10.0000    195.0840
  440   3 Pt  78       2.860000   12.970000   19.710001      10.0000    195.0840
  441   3 Pt  78       5.690000   12.890000   19.710001      10.0000    195.0840
  442   3 Pt  78       0.010000    1.530000   17.410000      10.0000    195.0840
  443   3 Pt  78       2.960000    1.430000   17.440001      10.0000    195.0840
  444   3 Pt  78       5.710001    1.410000   17.460000      10.0000    195.0840
  445   3 Pt  78       8.430000    1.480000   17.550000      10.0000    195.0840
  446   3 Pt  78      11.280001    1.520000   17.520000      10.0000    195.0840
  447   3 Pt  78      14.130001    1.530000   17.420001      10.0000    195.0840
  448   3 Pt  78       1.590000    3.770000   17.460000      10.0000    195.0840
  449   3 Pt  78       4.400000    3.870000   17.440001      10.0000    195.0840
  450   3 Pt  78       7.030000    4.040000   17.560000      10.0000    195.0840
  451   3 Pt  78       9.880000    4.070000   17.470000      10.0000    195.0840
  452   3 Pt  78      12.660000    3.970000   17.430000      10.0000    195.0840
  453   3 Pt  78      -1.270000    3.950000   17.470000      10.0000    195.0840
  454   3 Pt  78       3.010000    6.360001   17.470000      10.0000    195.0840
  455   3 Pt  78       5.720000    6.350000   17.500000      10.0000    195.0840
  456   3 Pt  78       8.460000    6.470000   17.450000      10.0000    195.0840
  457   3 Pt  78      11.290001    6.480000   17.540000      10.0000    195.0840
  458   3 Pt  78      -2.660000    6.370000   17.430000      10.0000    195.0840
  459   3 Pt  78       0.160000    6.270000   17.550000      10.0000    195.0840
  460   3 Pt  78       4.460000    8.810000   17.520000      10.0000    195.0840
  461   3 Pt  78       7.200000    8.850000   17.570000      10.0000    195.0840
  462   3 Pt  78       9.990001    8.810000   17.540000      10.0000    195.0840
  463   3 Pt  78      -4.200000    8.840000   17.440001      10.0000    195.0840
  464   3 Pt  78      -1.330000    8.730000   17.530000      10.0000    195.0840
  465   3 Pt  78       1.570000    8.840000   17.460000      10.0000    195.0840
  466   3 Pt  78       5.730000   11.240001   17.580000      10.0000    195.0840
  467   3 Pt  78       8.580000   11.220001   17.580000      10.0000    195.0840
  468   3 Pt  78      -5.540000   11.220001   17.630000      10.0000    195.0840
  469   3 Pt  78      -2.780000   11.130000   17.510000      10.0000    195.0840
  470   3 Pt  78      -0.030000   11.170001   17.480000      10.0000    195.0840
  471   3 Pt  78       2.980000   11.240001   17.580000      10.0000    195.0840
  472   3 Pt  78       7.190001   13.720001   17.470000      10.0000    195.0840
  473   3 Pt  78      -6.920000   13.620001   17.530000      10.0000    195.0840
  474   3 Pt  78      -4.140000   13.560000   17.610000      10.0000    195.0840
  475   3 Pt  78      -1.370000   13.620001   17.500000      10.0000    195.0840
  476   3 Pt  78       1.460000   13.600000   17.510000      10.0000    195.0840
  477   3 Pt  78       4.260000   13.740001   17.390000      10.0000    195.0840
  478   3 Pt  78      -8.430000   14.390000   15.150001      10.0000    195.0840
  479   3 Pt  78      -5.500000   14.500000   15.310000      10.0000    195.0840
  480   3 Pt  78      -2.750000   14.380001   15.290000      10.0000    195.0840
  481   3 Pt  78       0.070000   14.580001   15.220000      10.0000    195.0840
  482   3 Pt  78       2.910000   14.580001   15.120000      10.0000    195.0840
  483   3 Pt  78       5.670000   14.550000   15.100000      10.0000    195.0840
  484   3 Pt  78       1.420000    2.260000   15.220000      10.0000    195.0840
  485   3 Pt  78       4.260000    2.260000   15.090000      10.0000    195.0840
  486   3 Pt  78       7.130001    2.400000   15.180000      10.0000    195.0840
  487   3 Pt  78       9.760000    2.350000   15.170000      10.0000    195.0840
  488   3 Pt  78      12.660000    2.370000   15.070000      10.0000    195.0840
  489   3 Pt  78      -1.320000    2.300000   15.080000      10.0000    195.0840
  490   3 Pt  78       2.900000    4.730000   15.000000      10.0000    195.0840
  491   3 Pt  78       5.700001    4.830000   15.090000      10.0000    195.0840
  492   3 Pt  78       8.400001    4.790000   15.190000      10.0000    195.0840
  493   3 Pt  78      11.300000    4.670000   15.110001      10.0000    195.0840
  494   3 Pt  78      -2.730000    4.720000   15.000000      10.0000    195.0840
  495   3 Pt  78       0.230000    4.600000   15.230000      10.0000    195.0840
  496   3 Pt  78       4.330000    7.280001   15.170000      10.0000    195.0840
  497   3 Pt  78       7.110000    7.300000   15.120000      10.0000    195.0840
  498   3 Pt  78       9.890000    7.200000   15.070000      10.0000    195.0840
  499   3 Pt  78      -4.090000    7.280001   15.100000      10.0000    195.0840
  500   3 Pt  78      -1.220000    7.170000   15.210000      10.0000    195.0840
  501   3 Pt  78       1.440000    7.090001   15.240001      10.0000    195.0840
  502   3 Pt  78       5.700001    9.680000   15.140000      10.0000    195.0840
  503   3 Pt  78       8.600000    9.660000   15.150001      10.0000    195.0840
  504   3 Pt  78      -5.540000    9.610001   15.210000      10.0000    195.0840
  505   3 Pt  78      -2.670000    9.540001   15.130000      10.0000    195.0840
[...]
 flops    13 x     5 x   120           5869843200       0.0%    100.0%      0.0%
 flops    13 x    13 x   120           7013878560       0.0%    100.0%      0.0%
 flops     5 x     5 x    96           7374182400       0.0%    100.0%      0.0%
 flops    13 x    32 x    20           8371034880       0.0%    100.0%      0.0%
 flops    20 x    32 x    13           8371034880       0.0%    100.0%      0.0%
 flops     5 x    32 x    20           9038931200       0.0%    100.0%      0.0%
 flops    20 x    32 x     5           9038931200       0.0%    100.0%      0.0%
 flops     5 x    13 x    96           9378120960       0.0%    100.0%      0.0%
 flops    13 x     5 x    96           9391749120       0.0%    100.0%      0.0%
 flops    20 x    13 x   120          10002096000       0.0%    100.0%      0.0%
 flops    13 x    20 x   120          10067803200       0.0%    100.0%      0.0%
 flops    20 x     5 x   120          10825776000       0.0%    100.0%      0.0%
 flops     5 x    20 x   120          10845432000       0.0%    100.0%      0.0%
 flops    13 x    13 x    96          11222205696       0.0%    100.0%      0.0%
 flops    20 x    13 x    96          16003353600       0.0%    100.0%      0.0%
 flops    13 x    20 x    96          16108485120       0.0%    100.0%      0.0%
 flops    20 x     5 x    96          17321241600       0.0%    100.0%      0.0%
 flops     5 x    20 x    96          17352691200       0.0%    100.0%      0.0%
 flops     5 x     5 x   128          63909580800       0.0%    100.0%      0.0%
 flops    20 x    32 x    20          72858009600       0.0%    100.0%      0.0%
 flops     5 x    13 x   128          81277048320       0.0%    100.0%      0.0%
 flops    13 x     5 x   128          81395159040       0.0%    100.0%      0.0%
 flops    20 x    20 x   120          87744384000       0.0%    100.0%      0.0%
 flops    13 x    13 x   128          97259116032       0.0%    100.0%      0.0%
 flops    20 x    13 x   128         138695731200       0.0%    100.0%      0.0%
 flops    13 x    20 x   128         139606871040       0.0%    100.0%      0.0%
 flops    20 x    20 x    96         140391014400       0.0%    100.0%      0.0%
 flops    20 x     5 x   128         150117427200       0.0%    100.0%      0.0%
 flops     5 x    20 x   128         150389990400       0.0%    100.0%      0.0%
 flops    20 x    20 x   128        1216722124800       0.0%    100.0%      0.0%
 flops inhomo. stacks                           0       0.0%      0.0%      0.0%
 flops total                         2.645393E+12       0.0%    100.0%      0.0%
 flops max/rank                     23.043426E+09       0.0%    100.0%      0.0%
 matmuls inhomo. stacks                         0       0.0%      0.0%      0.0%
 matmuls total                           73457698       0.0%    100.0%      0.0%
 number of processed stacks                738722       0.0%    100.0%      0.0%
 average stack size                                     0.0      99.4       0.0
 marketing flops                     5.390003E+12
 -------------------------------------------------------------------------------
 # multiplications                             40
 max memory usage/rank               1.614488E+09
 # max total images/rank                        2
 # max 3D layers                                1
 # MPI messages exchanged                  148480
 MPI messages size (bytes):
  total size                        94.112842E+09
  min size                         272.640000E+03
  max size                           2.287216E+06
  average size                     633.841875E+03
 MPI breakdown and total messages size (bytes):
             size <=      128                   0                        0
       128 < size <=     8192                   0                        0
      8192 < size <=    32768                   0                        0
     32768 < size <=   131072                   0                        0
    131072 < size <=  4194304              148480              94112839560
   4194304 < size <= 16777216                   0                        0
  16777216 < size                               0                        0
 -------------------------------------------------------------------------------

 *** WARNING in dbcsr_mm.F:290 :: Using a non-square number of MPI ranks ***
 *** might lead to poor performance. Used ranks: 128 Suggested: 121 256  ***

 -------------------------------------------------------------------------------
 -                                                                             -
 -                      DBCSR MESSAGE PASSING PERFORMANCE                      -
 -                                                                             -
 -------------------------------------------------------------------------------
 ROUTINE             CALLS      AVE VOLUME [Bytes]
 MP_Bcast               46                     12.
 MP_Allreduce          383                     13.
 MP_Alltoall          1113                 595421.
 MP_ISend             2560                 301130.
 MP_IRecv             2560                 294597.
 -------------------------------------------------------------------------------

 -------------------------------------------------------------------------------
 -                                                                             -
 -                                DBM STATISTICS                               -
 -                                                                             -
 -------------------------------------------------------------------------------
    M  x    N  x    K                                          COUNT     PERCENT
 -------------------------------------------------------------------------------

 -------------------------------------------------------------------------------
 -                                                                             -
 -                                GRID STATISTICS                              -
 -                                                                             -
 -------------------------------------------------------------------------------
 LP    KERNEL             BACKEND                              COUNT     PERCENT
 4     collocate general  REF                               15398512      22.28%
 4     integrate general  REF                               15273071      22.10%
 3     collocate general  REF                               10631754      15.38%
 3     integrate general  REF                               10573011      15.30%
 2     collocate general  REF                                8399520      12.15%
 2     integrate general  REF                                8178480      11.83%
 5     integrate general  REF                                 405224       0.59%
 0     collocate general  REF                                 131328       0.19%
 0     integrate general  REF                                  65664       0.09%
 1     integrate general  REF                                  65664       0.09%
 -------------------------------------------------------------------------------

 MEMORY| Estimated peak process memory [MiB]                                1794

 -------------------------------------------------------------------------------
 ----                             MULTIGRID INFO                            ----
 -------------------------------------------------------------------------------
 count for grid        1:        1095004          cutoff [a.u.]          200.00
 count for grid        2:        1090306          cutoff [a.u.]           66.67
 count for grid        3:         713716          cutoff [a.u.]           22.22
 count for grid        4:         552372          cutoff [a.u.]            7.41
 total gridlevel count  :        3451398

 -------------------------------------------------------------------------------
 -                                                                             -
 -                         MESSAGE PASSING PERFORMANCE                         -
 -                                                                             -
 -------------------------------------------------------------------------------

 ROUTINE             CALLS      AVE VOLUME [Bytes]
 MP_Group                4
 MP_Bcast             2202                 306323.
 MP_Allreduce         3395                  31783.
 MP_Sync                82
 MP_Alltoall          2302               16282282.
 MP_SendRecv           508                   5859.
 MP_ISendRecv        19304                  61740.
 MP_Wait             34232
 MP_comm_split          39
 MP_ISend            14072                 256394.
 MP_IRecv            14072                 256394.
 MP_Recv               122                1688832.
 MP_Write_All            3                1797408.
 -------------------------------------------------------------------------------


 -------------------------------------------------------------------------------
 -                                                                             -
 -                           R E F E R E N C E S                               -
 -                                                                             -
 -------------------------------------------------------------------------------
 
 CP2K version 2022.1, the CP2K developers group (2022).
 CP2K is freely available from https://www.cp2k.org/ .

 Kuehne,Thomas D.; Iannuzzi,Marcella; Del Ben,Mauro;
 Rybkin,Vladimir V.; Seewald,Patrick; Stein,Frederick; Laino,Teodoro;
 Khaliullin,Rustam Z.; Schuett,Ole; Schiffmann,Florian; Golze,Dorothea;
 Wilhelm,Jan; Chulkov,Sergey; Bani-Hashemian,Mohammad Hossein;
 Weber,Valery; Borstnik,Urban; Taillefumier,Mathieu;
 Jakobovits,Alice Shoshana; Lazzaro,Alfio; Pabst,Hans; Mueller,Tiziano;
 Schade,Robert; Guidon,Manuel; Andermatt,Samuel; Holmberg,Nico;
 Schenter,Gregory K.; Hehn,Anna; Bussy,Augustin; Belleflamme,Fabian;
 Tabacchi,Gloria; Gloess,Andreas; Lass,Michael; Bethune,Iain;
 Mundy,Christopher J.; Plessl,Christian; Watkins,Matt;
 VandeVondele,Joost; Krack,Matthias; Hutter,Juerg. 
 The Journal of Chemical Physics, 152 (19), (2020). 
 CP2K: An electronic structure and molecular dynamics software package -
 Quickstep: Efficient and accurate electronic structure calculations.
 https://doi.org/10.1063/5.0007045

 Goerigk, Lars; Hansen, Andreas; Bauer, Christoph; Ehrlich, Stephan;
 Najibi, Asim; Grimme, Stefan. , 19 (48), (2017). 
 A look at the density functional theory zoo with the advanced GMTKN55 database
 for general main group thermochemistry, kinetics and noncovalent interactions.
 https://doi.org/10.1039/C7CP04913G

 Bani-Hashemian, MH; Bruck, S; Luisier, M; VandeVondele, J. 
 JOURNAL OF CHEMICAL PHYSICS, 144 (4), 044113 (2016). 
 A generalized Poisson solver for first-principles device simulations.
 https://doi.org/10.1063/1.4940796

 Schuett, Ole; Messmer, Peter; Hutter, Juerg; VandeVondele, Joost. 
 Electronic Structure Calculations on Graphics Processing Units, John
 Wiley & Sons, Ltd, 173-190 (2016). 
 GPU-Accelerated Sparse Matrix-Matrix Multiplication for
 Linear Scaling Density Functional Theory.
 https://doi.org/10.1002/9781118670712.ch8

 Heinecke, A; Henry, G; Hutchinson, M; Pabst, H. 
 Proceedings of Intl. Supercomputing Conference, 981-991 (2016). 
 LIBXSMM: Accelerating Small Matrix Multiplications
 by Runtime Code Generation.
 https://doi.org/10.1109/SC.2016.83

 Borstnik, U; VandeVondele, J; Weber, V; Hutter, J. 
 PARALLEL COMPUTING, 40 (5-6), 47-58 (2014). 
 Sparse matrix multiplication: The distributed block-compressed sparse
 row library.
 https://doi.org/10.1016/j.parco.2014.03.012

 Hutter, J; Iannuzzi, M; Schiffmann, F; VandeVondele, J. 
 WIREs Comput Mol Sci., 4 (1), 15-25 (2014). 
 CP2K: atomistic simulations of condensed matter systems.
 https://doi.org/10.1002/wcms.1159

 Marek, A; Blum, V; Johanni, R; Havu, V; Lang, B; Auckenthaler, T;
 Heinecke, A; Bungartz, H; Lederer, H. 
 Journal of Physics: Condensed Matter, 26 (21), (2014). 
 The ELPA library: scalable parallel eigenvalue solutions for
 electronic structure
 theory and computational science.
 https://doi.org/10.1088/0953-8984/26/21/213201

 Grimme, S; Ehrlich, S; Goerigk, L. 
 JOURNAL OF COMPUTATIONAL CHEMISTRY, 32, 1456 (2011). 
 Effect of the damping function in dispersion corrected density functional theory.
 https://doi.org/10.1002/jcc.21759

 Grimme, S; Antony, J; Ehrlich, S; Krieg, H. 
 JOURNAL OF CHEMICAL PHYSICS, 132 (15), 154104 (2010). 
 A consistent and accurate ab initio parametrization of density
 functional dispersion correction (DFT-D) for the 94 elements H-Pu.
 https://doi.org/10.1063/1.3382344

 VandeVondele, J; Hutter, J. 
 JOURNAL OF CHEMICAL PHYSICS, 127 (11), 114105 (2007). 
 Gaussian basis sets for accurate calculations on molecular systems in
 gas and condensed phases.
 https://doi.org/10.1063/1.2770708

 Krack, M. 
 THEORETICAL CHEMISTRY ACCOUNTS, 114 (1-3), 145-152 (2005). 
 Pseudopotentials for H to Kr optimized for gradient-corrected
 exchange-correlation functionals.
 https://doi.org/10.1007/s00214-005-0655-y

 VandeVondele, J; Krack, M; Mohamed, F; Parrinello, M; Chassaing, T;
 Hutter, J. COMPUTER PHYSICS COMMUNICATIONS, 167 (2), 103-128 (2005). 
 QUICKSTEP: Fast and accurate density functional calculations using a
 mixed Gaussian and plane waves approach.
 https://doi.org/10.1016/j.cpc.2004.12.014

 Frigo, M; Johnson, SG. 
 PROCEEDINGS OF THE IEEE, 93 (2), 216-231 (2005). 
 The design and implementation of FFTW3.
 https://doi.org/10.1109/JPROC.2004.840301

 Hartwigsen, C; Goedecker, S; Hutter, J. 
 PHYSICAL REVIEW B, 58 (7), 3641-3662 (1998). 
 Relativistic separable dual-space Gaussian pseudopotentials from H to Rn.
 https://doi.org/10.1103/PhysRevB.58.3641

 Lippert, G; Hutter, J; Parrinello, M. 
 MOLECULAR PHYSICS, 92 (3), 477-487 (1997). 
 A hybrid Gaussian and plane wave density functional scheme.
 https://doi.org/10.1080/002689797170220

 Perdew, JP; Burke, K; Ernzerhof, M. 
 PHYSICAL REVIEW LETTERS, 77 (18), 3865-3868 (1996). 
 Generalized gradient approximation made simple.
 https://doi.org/10.1103/PhysRevLett.77.3865

 Goedecker, S; Teter, M; Hutter, J. 
 PHYSICAL REVIEW B, 54 (3), 1703-1710 (1996). 
 Separable dual-space Gaussian pseudopotentials.
 https://doi.org/10.1103/PhysRevB.54.1703


 -------------------------------------------------------------------------------
 -                                                                             -
 -                                T I M I N G                                  -
 -                                                                             -
 -------------------------------------------------------------------------------
 SUBROUTINE                       CALLS  ASD         SELF TIME        TOTAL TIME
                                MAXIMUM       AVERAGE  MAXIMUM  AVERAGE  MAXIMUM
 CP2K                                 1  1.0    0.018    0.032  269.192  269.194
 qs_forces                            1  2.0    0.002    0.002  268.727  268.729
 qs_energies                          1  3.0    0.000    0.001  262.522  262.526
 scf_env_do_scf                       1  4.0    0.000    0.000  253.540  253.680
 scf_env_do_scf_inner_loop           37  5.0    0.002    0.005  253.537  253.676
 rebuild_ks_matrix                   38  6.9    0.000    0.000  137.162  137.196
 qs_ks_build_kohn_sham_matrix        38  7.9    0.006    0.007  137.161  137.196
 qs_ks_update_qs_env                 37  6.0    0.000    0.000  133.133  133.167
 pw_transfer                       1980 12.2    0.145    0.181   86.479   88.290
 fft_wrap_pw1pw2                   1980 13.2    0.019    0.037   86.335   88.120
 fft_wrap_pw1pw2_200               1752 14.4    5.830    6.955   85.154   86.874
 pw_poisson_solve                    38  8.9    0.004    0.010   74.192   74.221
 qs_scf_new_mos                      37  6.0    0.002    0.005   72.771   72.864
 fft3d_ps                          1980 15.2   24.872   27.946   69.434   71.961
 implicit_poisson_solver_mixed_      38  9.9    1.569    1.930   70.194   70.260
 eigensolver                         37  7.0    0.003    0.004   68.551   68.780
 derive_fft                         228 12.1    0.015    0.034   49.322   49.444
 cp_fm_diag_elpa                     39  8.1    0.000    0.001   48.352   48.479
 cp_fm_redistribute_end              39  9.1    6.442   47.921    6.517   47.967
 cp_fm_diag_elpa_base                39  9.0   40.824   46.858   41.216   47.243
 mp_alltoall_z22v                  1980 17.2   37.308   45.847   37.308   45.847
 qs_rho_update_rho_low               38  6.0    0.000    0.000   42.312   42.321
 calculate_rho_elec                  38  7.0    0.073    0.095   42.311   42.321
 apply_P_operator                   190 11.1    1.013    1.128   42.059   42.188
 sum_up_and_integrate                38  8.9    0.206    0.258   41.964   42.006
 integrate_v_rspace                  38  9.9    0.001    0.003   41.758   41.860
 grid_collocate_task_list            38  8.0   27.486   33.172   27.486   33.172
 grid_integrate_task_list            38 10.9   25.570   30.236   25.570   30.236
 x_to_yz                           1141 16.4    4.825    6.093   28.337   29.359
 rs_pw_transfer                     308 10.4    0.004    0.004   18.917   23.174
 cp_fm_triangular_multiply          111  8.0   21.642   21.923   21.642   21.923
 yz_to_x                            611 16.4    1.665    1.932   15.314   20.826
 qs_vxc_create                       38  8.9    0.001    0.002   18.779   19.009
 xc_vxc_pw_create                    38  9.9    0.323    0.403   18.778   19.008
 density_rs2pw                       38  8.0    0.002    0.003   13.992   18.049
 xc_pw_derive                       228 11.9    0.004    0.004   13.210   14.703
 mp_waitany                       14072 12.3    8.265   12.817    8.265   12.817
 apply_poisson_operator_fft          38 10.9    0.001    0.001   12.416   12.633
 rs_pw_transfer_RS2PW_200            40  9.9    2.591    2.894    8.237   12.494
 apply_inv_laplace_operator_fft     116 11.6    0.289    0.334   11.273   11.679
 potential_pw2rs                     38 10.9    0.011    0.012   11.094   11.176
 mp_alltoall_d11v                   554 10.3    6.208   10.496    6.208   10.496
 xc_pw_divergence                    38 10.9    0.002    0.002    8.942   10.022
 xc_rho_set_and_dset_create          38 10.9    0.189    0.219    9.161    9.907
 rs_gather_matrices                  38 10.9    0.047    0.056    5.081    9.262
 ps_implicit_compute_error_fft       76 10.9    0.478    0.589    8.242    8.819
 ps_implicit_compute_veps            38 10.9    0.221    0.263    8.499    8.634
 pw_scatter_p                      1255 15.4    7.046    8.291    7.046    8.291
 rs_pw_transfer_PW2RS_200            40 12.7    3.022    3.161    6.320    6.479
 pw_derive                          912 13.0    5.787    6.220    5.787    6.220
 gspace_mixing                       36  6.0    0.069    0.083    6.192    6.193
 scf_post_calculation_gpw             1  4.0    0.000    0.001    5.669    5.674
 write_available_results              1  5.0    0.000    0.000    5.668    5.674
 -------------------------------------------------------------------------------

 The number of warnings for this run is : 1
 
 -------------------------------------------------------------------------------
  **** **** ******  **  PROGRAM ENDED AT                 2023-12-02 17:48:09.884
 ***** ** ***  *** **   PROGRAM RAN ON                                     cu062
 **    ****   ******    PROGRAM RAN BY                                     jxzhu
 ***** **    ** ** **   PROGRAM PROCESS ID                                 59401
  **** **  *******  **  PROGRAM STOPPED IN /public/home/jxzhu/tmp_calc/6b4c51da6
                                           41ba5c66aad3ddb94f79f1cf4c740ec/calc/
                                           001900.000/search_hi.000001
