 DBCSR| CPU Multiplication driver                                           XSMM
 DBCSR| Multrec recursion limit                                              512
 DBCSR| Multiplication stack size                                           1000
 DBCSR| Maximum elements for images                                    UNLIMITED
 DBCSR| Multiplicative factor virtual images                                   1
 DBCSR| Use multiplication densification                                       T
 DBCSR| Multiplication size stacks                                             3
 DBCSR| Use memory pool for CPU allocation                                     F
 DBCSR| Number of 3D layers                                               SINGLE
 DBCSR| Use MPI memory allocation                                              F
 DBCSR| Use RMA algorithm                                                      F
 DBCSR| Use Communication thread                                               T
 DBCSR| Communication thread load                                             87
 DBCSR| MPI: My node id                                                        0
 DBCSR| MPI: Number of nodes                                                  64
 DBCSR| OMP: Current number of threads                                         1
 DBCSR| OMP: Max number of threads                                             1
 DBCSR| Split modifier for TAS multiplication algorithm                  1.0E+00


  **** **** ******  **  PROGRAM STARTED AT               2023-11-26 17:39:52.257
 ***** ** ***  *** **   PROGRAM STARTED ON                                 cu054
 **    ****   ******    PROGRAM STARTED BY                                 jxzhu
 ***** **    ** ** **   PROGRAM PROCESS ID                                 47284
  **** **  *******  **  PROGRAM STARTED IN /public/home/jxzhu/tmp_calc/af2075565
                                           805657d94fa4669dad6f4b174b0a4fb/calc/
                                           000700.000/pbc

 CP2K| version string:                                       CP2K version 2022.1
 CP2K| source code revision number:                                  git:2caeb6f
 CP2K| cp2kflags: omp libint fftw3 libxc elpa parallel mpi3 scalapack cosma xsmm
 CP2K|             plumed2 spglib mkl sirius libvori libbqb
 CP2K| is freely available from                            https://www.cp2k.org/
 CP2K| Program compiled at                           Mon Jul 3 17:37:06 CST 2023
 CP2K| Program compiled on                                                 mu003
 CP2K| Program compiled for                                                local
 CP2K| Data directory path                             /public/home/jxzhu/basis/
 CP2K| Input file name                                                 input.inp
 
 GLOBAL| Force Environment number                                              1
 GLOBAL| Basis set file name                                        BASIS_MOLOPT
 GLOBAL| Potential file name                                      GTH_POTENTIALS
 GLOBAL| MM Potential file name                                     MM_POTENTIAL
 GLOBAL| Coordinate file name                                          coord.xyz
 GLOBAL| Method name                                                        CP2K
 GLOBAL| Project name                                                       cp2k
 GLOBAL| Run type                                                   ENERGY_FORCE
 GLOBAL| FFT library                                                       FFTW3
 GLOBAL| Diagonalization library                                            ELPA
 GLOBAL| Minimum number of eigenvectors for ELPA usage                        16
 GLOBAL| Orthonormality check for eigenvectors                          DISABLED
 GLOBAL| Matrix multiplication library                                     COSMA
 GLOBAL| All-to-all communication in single precision                          F
 GLOBAL| FFTs using library dependent lengths                                  F
 GLOBAL| Grid backend                                                       AUTO
 GLOBAL| Global print level                                               MEDIUM
 GLOBAL| MPI I/O enabled                                                       T
 GLOBAL| Total number of message passing processes                            64
 GLOBAL| Number of threads for this process                                    1
 GLOBAL| This output is from process                                           0
 GLOBAL| Stack size for threads created by OpenMP (OMP_STACKSIZE)        default
 GLOBAL| CPU model name                 Intel(R) Xeon(R) Gold 6338 CPU @ 2.00GHz
 GLOBAL| CPUID                                                              1003

 MEMORY| system memory details [Kb]
 MEMORY|                        rank 0           min           max       average
 MEMORY| MemTotal            263619172     263619172     263619172     263619172
 MEMORY| MemFree             211261176     211261176     211262416     211261331
 MEMORY| Buffers                  3320          3320          3320          3320
 MEMORY| Cached                3566928       3566928       3566928       3566928
 MEMORY| Slab                  1722152       1722152       1722152       1722152
 MEMORY| SReclaimable           240776        240776        240776        240776
 MEMORY| MemLikelyFree       215072200     215072200     215073440     215072355


 *** Fundamental physical constants (SI units) ***

 *** Literature: B. J. Mohr and B. N. Taylor,
 ***             CODATA recommended values of the fundamental physical
 ***             constants: 2006, Web Version 5.1
 ***             http://physics.nist.gov/constants

 Speed of light in vacuum [m/s]                             2.99792458000000E+08
 Magnetic constant or permeability of vacuum [N/A**2]       1.25663706143592E-06
 Electric constant or permittivity of vacuum [F/m]          8.85418781762039E-12
 Planck constant (h) [J*s]                                  6.62606896000000E-34
 Planck constant (h-bar) [J*s]                              1.05457162825177E-34
 Elementary charge [C]                                      1.60217648700000E-19
 Electron mass [kg]                                         9.10938215000000E-31
 Electron g factor [ ]                                     -2.00231930436220E+00
 Proton mass [kg]                                           1.67262163700000E-27
 Fine-structure constant                                    7.29735253760000E-03
 Rydberg constant [1/m]                                     1.09737315685270E+07
 Avogadro constant [1/mol]                                  6.02214179000000E+23
 Boltzmann constant [J/K]                                   1.38065040000000E-23
 Atomic mass unit [kg]                                      1.66053878200000E-27
 Bohr radius [m]                                            5.29177208590000E-11

 *** Conversion factors ***

 [u] -> [a.u.]                                              1.82288848426455E+03
 [Angstrom] -> [Bohr] = [a.u.]                              1.88972613288564E+00
 [a.u.] = [Bohr] -> [Angstrom]                              5.29177208590000E-01
 [a.u.] -> [s]                                              2.41888432650478E-17
 [a.u.] -> [fs]                                             2.41888432650478E-02
 [a.u.] -> [J]                                              4.35974393937059E-18
 [a.u.] -> [N]                                              8.23872205491840E-08
 [a.u.] -> [K]                                              3.15774647902944E+05
 [a.u.] -> [kJ/mol]                                         2.62549961709828E+03
 [a.u.] -> [kcal/mol]                                       6.27509468713739E+02
 [a.u.] -> [Pa]                                             2.94210107994716E+13
 [a.u.] -> [bar]                                            2.94210107994716E+08
 [a.u.] -> [atm]                                            2.90362800883016E+08
 [a.u.] -> [eV]                                             2.72113838565563E+01
 [a.u.] -> [Hz]                                             6.57968392072181E+15
 [a.u.] -> [1/cm] (wave numbers)                            2.19474631370540E+05
 [a.u./Bohr**2] -> [1/cm]                                   5.14048714338585E+03
 

 CELL_TOP| Volume [angstrom^3]:                                     10221.806009
 CELL_TOP| Vector a [angstrom    16.869     0.000     0.000   |a| =    16.869000
 CELL_TOP| Vector b [angstrom    -8.434    14.609     0.000   |b| =    16.869015
 CELL_TOP| Vector c [angstrom     0.000     0.000    41.478   |c| =    41.478000
 CELL_TOP| Angle (b,c), alpha [degree]:                                90.000000
 CELL_TOP| Angle (a,c), beta  [degree]:                                90.000000
 CELL_TOP| Angle (a,b), gamma [degree]:                               119.999970
 CELL_TOP| Numerically orthorhombic:                                          NO
 
 GENERATE|  Preliminary Number of Bonds generated:                             0
 GENERATE|  Achieved consistency in connectivity generation.

 CELL| Volume [angstrom^3]:                                         10221.806009
 CELL| Vector a [angstrom]:      16.869     0.000     0.000   |a| =    16.869000
 CELL| Vector b [angstrom]:      -8.434    14.609     0.000   |b| =    16.869015
 CELL| Vector c [angstrom]:       0.000     0.000    41.478   |c| =    41.478000
 CELL| Angle (b,c), alpha [degree]:                                    90.000000
 CELL| Angle (a,c), beta  [degree]:                                    90.000000
 CELL| Angle (a,b), gamma [degree]:                                   119.999970
 CELL| Numerically orthorhombic:                                              NO

 CELL_REF| Volume [angstrom^3]:                                     10221.806009
 CELL_REF| Vector a [angstrom    16.869     0.000     0.000   |a| =    16.869000
 CELL_REF| Vector b [angstrom    -8.434    14.609     0.000   |b| =    16.869015
 CELL_REF| Vector c [angstrom     0.000     0.000    41.478   |c| =    41.478000
 CELL_REF| Angle (b,c), alpha [degree]:                                90.000000
 CELL_REF| Angle (a,c), beta  [degree]:                                90.000000
 CELL_REF| Angle (a,b), gamma [degree]:                               119.999970
 CELL_REF| Numerically orthorhombic:                                          NO

 *******************************************************************************
 *******************************************************************************
 **                                                                           **
 **     #####                         ##              ##                      **
 **    ##   ##            ##          ##              ##                      **
 **   ##     ##                       ##            ######                    **
 **   ##     ##  ##   ##  ##   #####  ##  ##   ####   ##    #####    #####    **
 **   ##     ##  ##   ##  ##  ##      ## ##   ##      ##   ##   ##  ##   ##   **
 **   ##  ## ##  ##   ##  ##  ##      ####     ###    ##   ######   ######    **
 **    ##  ###   ##   ##  ##  ##      ## ##      ##   ##   ##       ##        **
 **     #######   #####   ##   #####  ##  ##  ####    ##    #####   ##        **
 **           ##                                                    ##        **
 **                                                                           **
 **                                                ... make the atoms dance   **
 **                                                                           **
 **            Copyright (C) by CP2K developers group (2000-2022)             **
 **                      J. Chem. Phys. 152, 194103 (2020)                    **
 **                                                                           **
 *******************************************************************************

 DFT| Spin restricted Kohn-Sham (RKS) calculation                            RKS
 DFT| Multiplicity                                                             1
 DFT| Number of spin states                                                    1
 DFT| Charge                                                                   0
 DFT| Self-interaction correction (SIC)                                       NO
 DFT| Cutoffs: density                                              1.000000E-10
 DFT|          gradient                                             1.000000E-10
 DFT|          tau                                                  1.000000E-10
 DFT|          cutoff_smoothing_range                               0.000000E+00
 DFT| XC density smoothing                                                  NONE
 DFT| XC derivatives                                                          PW

 FUNCTIONAL| PBE:
 FUNCTIONAL| J.P.Perdew, K.Burke, M.Ernzerhof, Phys. Rev. Letter, vol. 77, n 18,
 FUNCTIONAL|  pp. 3865-3868, (1996){spin unpolarized}                           

 vdW POTENTIAL|                                                   Pair Potential
 vdW POTENTIAL|          DFT-D3 (Version 3.1)
 vdW POTENTIAL|          Potential Form: S. Grimme et al, JCP 132: 154104 (2010)
 vdW POTENTIAL|          Zero Damping
 vdW POTENTIAL|          Cutoff Radius [Bohr]:                             20.00
 vdW POTENTIAL|          s6 Scaling Factor:                               1.0000
 vdW POTENTIAL|          sr6 Scaling Factor:                              1.2170
 vdW POTENTIAL|          s8 Scaling Factor:                               0.7220
 vdW POTENTIAL|          Cutoff for CN calculation:                   0.1000E-05

 QS| Method:                                                                 GPW
 QS| Density plane wave grid type                        NON-SPHERICAL FULLSPACE
 QS| Number of grid levels:                                                    4
 QS| Density cutoff [a.u.]:                                                200.0
 QS| Multi grid cutoff [a.u.]: 1) grid level                               200.0
 QS|                           2) grid level                                66.7
 QS|                           3) grid level                                22.2
 QS|                           4) grid level                                 7.4
 QS| Grid level progression factor:                                          3.0
 QS| Relative density cutoff [a.u.]:                                        20.0
 QS| Interaction thresholds: eps_pgf_orb:                                3.2E-07
 QS|                         eps_filter_matrix:                          0.0E+00
 QS|                         eps_core_charge:                            1.0E-15
 QS|                         eps_rho_gspace:                             1.0E-13
 QS|                         eps_rho_rspace:                             1.0E-13
 QS|                         eps_gvg_rspace:                             3.2E-07
 QS|                         eps_ppl:                                    1.0E-02
 QS|                         eps_ppnl:                                   3.2E-09


 ATOMIC KIND INFORMATION

  1. Atomic kind: O                                     Number of atoms:     230

     Orbital Basis Set                                        DZVP-MOLOPT-SR-GTH

       Number of orbital shell sets:                                           1
       Number of orbital shells:                                               5
       Number of primitive Cartesian functions:                                5
       Number of Cartesian basis functions:                                   14
       Number of spherical basis functions:                                   13
       Norm type:                                                              2

       Normalised Cartesian orbitals:

                        Set   Shell   Orbital            Exponent    Coefficient

                          1       1    2s               10.389228       0.396646
                                                         3.849621       0.208811
                                                         1.388401      -0.301641
                                                         0.496955      -0.274061
                                                         0.162492      -0.033677

                          1       2    3s               10.389228       0.303673
                                                         3.849621       0.240943
                                                         1.388401      -0.313066
                                                         0.496955      -0.043055
                                                         0.162492       0.213991

                          1       3    3px              10.389228      -1.530415
                                                         3.849621      -1.371928
                                                         1.388401      -0.761951
                                                         0.496955      -0.253695
                                                         0.162492      -0.035541
                          1       3    3py              10.389228      -1.530415
                                                         3.849621      -1.371928
                                                         1.388401      -0.761951
                                                         0.496955      -0.253695
                                                         0.162492      -0.035541
                          1       3    3pz              10.389228      -1.530415
                                                         3.849621      -1.371928
                                                         1.388401      -0.761951
                                                         0.496955      -0.253695
                                                         0.162492      -0.035541

                          1       4    4px              10.389228      -0.565392
                                                         3.849621      -0.038231
                                                         1.388401      -0.382373
                                                         0.496955       0.179070
                                                         0.162492       0.122714
                          1       4    4py              10.389228      -0.565392
                                                         3.849621      -0.038231
                                                         1.388401      -0.382373
                                                         0.496955       0.179070
                                                         0.162492       0.122714
                          1       4    4pz              10.389228      -0.565392
                                                         3.849621      -0.038231
                                                         1.388401      -0.382373
                                                         0.496955       0.179070
                                                         0.162492       0.122714

                          1       5    4dx2             10.389228       1.867377
                                                         3.849621       0.670994
                                                         1.388401       1.353441
                                                         0.496955       0.273538
                                                         0.162492       0.006620
                          1       5    4dxy             10.389228       3.234392
                                                         3.849621       1.162195
                                                         1.388401       2.344229
                                                         0.496955       0.473781
                                                         0.162492       0.011466
                          1       5    4dxz             10.389228       3.234392
                                                         3.849621       1.162195
                                                         1.388401       2.344229
                                                         0.496955       0.473781
                                                         0.162492       0.011466
                          1       5    4dy2             10.389228       1.867377
                                                         3.849621       0.670994
                                                         1.388401       1.353441
                                                         0.496955       0.273538
                                                         0.162492       0.006620
                          1       5    4dyz             10.389228       3.234392
                                                         3.849621       1.162195
                                                         1.388401       2.344229
                                                         0.496955       0.473781
                                                         0.162492       0.011466
                          1       5    4dz2             10.389228       1.867377
                                                         3.849621       0.670994
                                                         1.388401       1.353441
                                                         0.496955       0.273538
                                                         0.162492       0.006620

       Atomic covalent radius [Angstrom]:                                  0.730

       Atomic van der Waals radius [Angstrom]:                             1.520

     GTH Potential information for                                    GTH-PBE-q6

       Description:                       Goedecker-Teter-Hutter pseudopotential
                                           Goedecker et al., PRB 54, 1703 (1996)
                                          Hartwigsen et al., PRB 58, 3641 (1998)
                                                      Krack, TCA 114, 145 (2005)

       Gaussian exponent of the core charge distribution:               8.360253
       Electronic configuration (s p d ...):                               2   4

       Parameters of the local part of the GTH pseudopotential:

                          rloc        C1          C2          C3          C4
                        0.244554  -16.667215    2.487311

       Parameters of the non-local part of the GTH pseudopotential:

                   l      r(l)      h(i,j,l)

                   0    0.220956   18.337458
                   1    0.211332

  2. Atomic kind: H                                     Number of atoms:     460

     Orbital Basis Set                                        DZVP-MOLOPT-SR-GTH

       Number of orbital shell sets:                                           1
       Number of orbital shells:                                               3
       Number of primitive Cartesian functions:                                5
       Number of Cartesian basis functions:                                    5
       Number of spherical basis functions:                                    5
       Norm type:                                                              2

       Normalised Cartesian orbitals:

                        Set   Shell   Orbital            Exponent    Coefficient

                          1       1    2s               10.068468      -0.133023
                                                         2.680223      -0.177618
                                                         0.791502      -0.258419
                                                         0.239116      -0.107525
                                                         0.082193      -0.014019

                          1       2    3s               10.068468       0.344673
                                                         2.680223       1.819821
                                                         0.791502      -0.999069
                                                         0.239116       0.017430
                                                         0.082193       0.082660

                          1       3    3px              10.068468       0.155326
                                                         2.680223       0.367157
                                                         0.791502       0.311480
                                                         0.239116       0.080105
                                                         0.082193       0.033440
                          1       3    3py              10.068468       0.155326
                                                         2.680223       0.367157
                                                         0.791502       0.311480
                                                         0.239116       0.080105
                                                         0.082193       0.033440
                          1       3    3pz              10.068468       0.155326
                                                         2.680223       0.367157
                                                         0.791502       0.311480
                                                         0.239116       0.080105
                                                         0.082193       0.033440

       Atomic covalent radius [Angstrom]:                                  0.320

       Atomic van der Waals radius [Angstrom]:                             1.090

     GTH Potential information for                                    GTH-PBE-q1

       Description:                       Goedecker-Teter-Hutter pseudopotential
                                           Goedecker et al., PRB 54, 1703 (1996)
                                          Hartwigsen et al., PRB 58, 3641 (1998)
                                                      Krack, TCA 114, 145 (2005)

       Gaussian exponent of the core charge distribution:              12.500000
       Electronic configuration (s p d ...):                                   1

       Parameters of the local part of the GTH pseudopotential:

                          rloc        C1          C2          C3          C4
                        0.200000   -4.178900    0.724463

  3. Atomic kind: Pt                                    Number of atoms:     216

     Orbital Basis Set                      DZVP-A5-Q10-323-MOL-T1-DERIVED_SET-1

       Number of orbital shell sets:                                           1
       Number of orbital shells:                                               6
       Number of primitive Cartesian functions:                                5
       Number of Cartesian basis functions:                                   23
       Number of spherical basis functions:                                   20
       Norm type:                                                              2

       Normalised Cartesian orbitals:

                        Set   Shell   Orbital            Exponent    Coefficient

                          1       1    2s                2.521825       0.177473
                                                         1.453920      -0.063399
                                                         0.614053      -0.407089
                                                         0.232656       0.262254
                                                         0.074788       0.047371

                          1       2    3s                2.521825      -0.049056
                                                         1.453920       0.044904
                                                         0.614053      -0.009756
                                                         0.232656      -0.144709
                                                         0.074788       0.144085

                          1       3    3px               2.521825      -0.317572
                                                         1.453920       0.534826
                                                         0.614053      -0.489458
                                                         0.232656       0.245631
                                                         0.074788       0.018221
                          1       3    3py               2.521825      -0.317572
                                                         1.453920       0.534826
                                                         0.614053      -0.489458
                                                         0.232656       0.245631
                                                         0.074788       0.018221
                          1       3    3pz               2.521825      -0.317572
                                                         1.453920       0.534826
                                                         0.614053      -0.489458
                                                         0.232656       0.245631
                                                         0.074788       0.018221

                          1       4    4dx2              2.521825       3.008522
                                                         1.453920      -1.224251
                                                         0.614053       0.225691
                                                         0.232656       0.125144
                                                         0.074788      -0.015348
                          1       4    4dxy              2.521825       5.210912
                                                         1.453920      -2.120465
                                                         0.614053       0.390909
                                                         0.232656       0.216756
                                                         0.074788      -0.026584
                          1       4    4dxz              2.521825       5.210912
                                                         1.453920      -2.120465
                                                         0.614053       0.390909
                                                         0.232656       0.216756
                                                         0.074788      -0.026584
                          1       4    4dy2              2.521825       3.008522
                                                         1.453920      -1.224251
                                                         0.614053       0.225691
                                                         0.232656       0.125144
                                                         0.074788      -0.015348
                          1       4    4dyz              2.521825       5.210912
                                                         1.453920      -2.120465
                                                         0.614053       0.390909
                                                         0.232656       0.216756
                                                         0.074788      -0.026584
                          1       4    4dz2              2.521825       3.008522
                                                         1.453920      -1.224251
                                                         0.614053       0.225691
                                                         0.232656       0.125144
                                                         0.074788      -0.015348

                          1       5    5dx2              2.521825       0.698026
                                                         1.453920      -1.511486
                                                         0.614053      -0.335394
                                                         0.232656      -0.025564
                                                         0.074788      -0.002699
                          1       5    5dxy              2.521825       1.209017
                                                         1.453920      -2.617970
                                                         0.614053      -0.580920
                                                         0.232656      -0.044277
                                                         0.074788      -0.004674
                          1       5    5dxz              2.521825       1.209017
                                                         1.453920      -2.617970
                                                         0.614053      -0.580920
                                                         0.232656      -0.044277
                                                         0.074788      -0.004674
                          1       5    5dy2              2.521825       0.698026
                                                         1.453920      -1.511486
                                                         0.614053      -0.335394
                                                         0.232656      -0.025564
                                                         0.074788      -0.002699
                          1       5    5dyz              2.521825       1.209017
                                                         1.453920      -2.617970
                                                         0.614053      -0.580920
                                                         0.232656      -0.044277
                                                         0.074788      -0.004674
                          1       5    5dz2              2.521825       0.698026
                                                         1.453920      -1.511486
                                                         0.614053      -0.335394
                                                         0.232656      -0.025564
                                                         0.074788      -0.002699

                          1       6    6dx2              2.521825       0.831079
                                                         1.453920      -0.709226
                                                         0.614053      -0.137351
                                                         0.232656       0.068642
                                                         0.074788       0.011745
                          1       6    6dxy              2.521825       1.439472
                                                         1.453920      -1.228415
                                                         0.614053      -0.237899
                                                         0.232656       0.118891
                                                         0.074788       0.020343
                          1       6    6dxz              2.521825       1.439472
                                                         1.453920      -1.228415
                                                         0.614053      -0.237899
                                                         0.232656       0.118891
                                                         0.074788       0.020343
                          1       6    6dy2              2.521825       0.831079
                                                         1.453920      -0.709226
                                                         0.614053      -0.137351
                                                         0.232656       0.068642
                                                         0.074788       0.011745
                          1       6    6dyz              2.521825       1.439472
                                                         1.453920      -1.228415
                                                         0.614053      -0.237899
                                                         0.232656       0.118891
                                                         0.074788       0.020343
                          1       6    6dz2              2.521825       0.831079
                                                         1.453920      -0.709226
                                                         0.614053      -0.137351
                                                         0.232656       0.068642
                                                         0.074788       0.011745

       Atomic covalent radius [Angstrom]:                                  1.300

       Atomic van der Waals radius [Angstrom]:                             1.750

     GTH Potential information for                                   GTH-PBE-q10

       Description:                       Goedecker-Teter-Hutter pseudopotential
                                           Goedecker et al., PRB 54, 1703 (1996)
                                          Hartwigsen et al., PRB 58, 3641 (1998)
                                                      Krack, TCA 114, 145 (2005)

       Gaussian exponent of the core charge distribution:               1.317676
       Electronic configuration (s p d ...):                           1   0   9

       Parameters of the local part of the GTH pseudopotential:

                          rloc        C1          C2          C3          C4
                        0.616000   11.313635

       Parameters of the non-local part of the GTH pseudopotential:

                   l      r(l)      h(i,j,l)

                   0    0.550904    4.733491   -1.784594
                                   -1.784594    2.303901
                   1    0.674138    2.534798   -1.778066
                                   -1.778066    2.103836
                   2    0.457392   -7.264011    2.558665
                                    2.558665   -2.901253


 MOLECULE KIND INFORMATION


 All atoms are their own molecule, skipping detailed information


 TOTAL NUMBERS AND MAXIMUM NUMBERS

  Total number of            - Atomic kinds:                                   3
                             - Atoms:                                        906
                             - Shell sets:                                   906
                             - Shells:                                      3826
                             - Primitive Cartesian functions:               4530
                             - Cartesian basis functions:                  10488
                             - Spherical basis functions:                   9610

  Maximum angular momentum of- Orbital basis functions:                        2
                             - Local part of the GTH pseudopotential:          2
                             - Non-local part of the GTH pseudopotential:      4


 MODULE QUICKSTEP:  ATOMIC COORDINATES IN angstrom

 Atom  Kind  Element       X           Y           Z          Z(eff)       Mass
    1   1 O    8      -1.490000   -0.370000   16.470001       6.0000     15.9994
    2   2 H    1      -0.990000   -0.330000   15.530001       1.0000      1.0079
    3   2 H    1      -2.200000   -1.040000   16.320002       1.0000      1.0079
    4   1 O    8      10.080000    3.240000    9.090000       6.0000     15.9994
    5   2 H    1       9.690001    4.100000    8.820001       1.0000      1.0079
    6   2 H    1      10.940001    3.200000    8.530001       1.0000      1.0079
    7   1 O    8       5.860000   -0.420000   16.730001       6.0000     15.9994
    8   2 H    1       5.870000    0.460000   17.190001       1.0000      1.0079
    9   2 H    1       4.970000   -0.480000   16.300001       1.0000      1.0079
   10   1 O    8      -5.150001   -3.460000   21.440001       6.0000     15.9994
   11   2 H    1      -4.790000   -4.090000   20.780001       1.0000      1.0079
   12   2 H    1      -5.010000   -2.540000   21.200001       1.0000      1.0079
   13   1 O    8       5.790000   -8.600000   29.870003       6.0000     15.9994
   14   2 H    1       6.460000   -7.930000   29.540003       1.0000      1.0079
   15   2 H    1       5.420001   -9.000000   29.000000       1.0000      1.0079
   16   1 O    8       2.070000   26.210001    9.120001       6.0000     15.9994
   17   2 H    1       2.470000   26.530001   10.010000       1.0000      1.0079
   18   2 H    1       2.240000   26.930000    8.470000       1.0000      1.0079
   19   1 O    8      -0.140000   23.210001   22.180002       6.0000     15.9994
   20   2 H    1      -0.390000   24.050003   22.590000       1.0000      1.0079
   21   2 H    1      -0.770000   22.500000   22.340002       1.0000      1.0079
   22   1 O    8       0.360000   24.320002    8.080000       6.0000     15.9994
   23   2 H    1       1.060000   25.030001    8.300000       1.0000      1.0079
   24   2 H    1       9.300001    8.920000    8.460000       1.0000      1.0079
   25   1 O    8      -5.440001  -13.010001   23.580000       6.0000     15.9994
   26   2 H    1      -5.460000  -13.720001   24.260002       1.0000      1.0079
   27   2 H    1      -4.480000  -12.680000   23.670002       1.0000      1.0079
   28   1 O    8      10.559999   19.220001   31.210001       6.0000     15.9994
   29   2 H    1       9.730001   18.980001   31.740002       1.0000      1.0079
   30   2 H    1      10.930000   20.110001   31.720001       1.0000      1.0079
   31   1 O    8       4.390000    9.260000   20.030001       6.0000     15.9994
   32   2 H    1       4.100000    8.380001   20.530003       1.0000      1.0079
   33   2 H    1       3.900000    9.360001   19.170000       1.0000      1.0079
   34   1 O    8       1.250000    3.370000   24.670000       6.0000     15.9994
   35   2 H    1       1.740000    2.810000   24.010000       1.0000      1.0079
   36   2 H    1       1.890000    3.310000   25.410002       1.0000      1.0079
   37   1 O    8      -2.070000  -18.590000   24.950001       6.0000     15.9994
   38   2 H    1      -1.090000  -18.730001   24.940002       1.0000      1.0079
   39   2 H    1      -2.430000  -19.450001   24.580002       1.0000      1.0079
   40   1 O    8      25.080002   22.220001    8.690001       6.0000     15.9994
   41   2 H    1      24.980001   21.490002    8.060000       1.0000      1.0079
   42   2 H    1      24.139999   22.380001    9.110001       1.0000      1.0079
   43   1 O    8      16.510000   -3.720000   32.070004       6.0000     15.9994
   44   2 H    1      15.530001   -3.780000   31.880001       1.0000      1.0079
   45   2 H    1      16.840002   -4.650001   32.310001       1.0000      1.0079
   46   1 O    8      -6.890000    0.470000   28.000002       6.0000     15.9994
   47   2 H    1      -6.400001    1.080000   28.640001       1.0000      1.0079
   48   2 H    1      -7.260000    1.070000   27.290001       1.0000      1.0079
   49   1 O    8     -11.180000   22.600000    9.590000       6.0000     15.9994
   50   2 H    1     -11.520000   23.520000    9.490001       1.0000      1.0079
   51   2 H    1     -11.760000   21.910002    9.210001       1.0000      1.0079
   52   1 O    8      -2.320000    4.760000   18.420002       6.0000     15.9994
   53   2 H    1      -2.030000    3.880000   17.920000       1.0000      1.0079
   54   2 H    1      -2.640000    5.350000   17.670000       1.0000      1.0079
   55   1 O    8      -5.580000   -5.560000   29.210003       6.0000     15.9994
   56   2 H    1      -5.910000   -5.350000   28.280001       1.0000      1.0079
   57   2 H    1      -6.340000   -5.290000   29.770002       1.0000      1.0079
   58   1 O    8      10.030001    4.070000   29.560001       6.0000     15.9994
   59   2 H    1      10.340000    4.150000   30.510002       1.0000      1.0079
   60   2 H    1       9.100000    3.620000   29.700001       1.0000      1.0079
   61   1 O    8     -15.320001   26.049999   30.110001       6.0000     15.9994
   62   2 H    1     -14.880000   26.920002   30.100002       1.0000      1.0079
   63   2 H    1       1.050000   26.080000   30.950001       1.0000      1.0079
   64   1 O    8       7.380000    3.820000   13.250000       6.0000     15.9994
   65   2 H    1       6.740000    3.660000   14.040001       1.0000      1.0079
   66   2 H    1      24.460001    2.910000   12.890000       1.0000      1.0079
   67   1 O    8      16.820000    4.020000    9.560000       6.0000     15.9994
   68   2 H    1       8.730000   17.870001   10.120001       1.0000      1.0079
   69   2 H    1      17.660000    4.370000    9.170000       1.0000      1.0079
   70   1 O    8      -4.200000   14.850000   31.950001       6.0000     15.9994
   71   2 H    1      -4.580000   15.770000   32.000000       1.0000      1.0079
   72   2 H    1      -3.270000   14.930000   32.190002       1.0000      1.0079
   73   1 O    8       0.450000    2.680000   20.960003       6.0000     15.9994
   74   2 H    1      -0.110000    2.350000   21.650002       1.0000      1.0079
   75   2 H    1       0.770000    2.080000   20.280001       1.0000      1.0079
   76   1 O    8      -3.570000    6.850000   32.250000       6.0000     15.9994
   77   2 H    1      -3.430000    6.420000   31.360001       1.0000      1.0079
   78   2 H    1      -2.870000    6.460000   32.790001       1.0000      1.0079
   79   1 O    8     -10.780001  -17.150000   18.820002       6.0000     15.9994
   80   2 H    1     -10.380001  -18.100000   19.000000       1.0000      1.0079
   81   2 H    1     -11.070000  -17.240002   17.870001       1.0000      1.0079
   82   1 O    8       8.620001    5.610001    8.860001       6.0000     15.9994
   83   2 H    1       8.780001    6.530001    9.120001       1.0000      1.0079
   84   2 H    1       8.960000    5.500000    7.920001       1.0000      1.0079
   85   1 O    8       5.470000   19.960001   13.660001       6.0000     15.9994
   86   2 H    1       4.750000   19.570002   13.070001       1.0000      1.0079
   87   2 H    1       6.240000   19.460001   13.370000       1.0000      1.0079
   88   1 O    8      15.730000   -0.550000   12.010001       6.0000     15.9994
   89   2 H    1      -0.850000   -1.130000   11.320001       1.0000      1.0079
   90   2 H    1      14.790001   -0.730000   12.280001       1.0000      1.0079
   91   1 O    8       6.640000    5.560000   28.160002       6.0000     15.9994
   92   2 H    1       7.030000    4.680000   28.380001       1.0000      1.0079
   93   2 H    1       7.490000    6.070001   28.050001       1.0000      1.0079
   94   1 O    8       4.520000    7.240000   21.610001       6.0000     15.9994
   95   2 H    1       3.860000    6.380000   21.680002       1.0000      1.0079
   96   2 H    1       4.450000    7.570000   22.520000       1.0000      1.0079
   97   1 O    8      -2.860000  -11.960001    9.490001       6.0000     15.9994
   98   2 H    1      -3.700000  -12.500000    9.110001       1.0000      1.0079
   99   2 H    1      -2.080000  -12.560000    9.280001       1.0000      1.0079
  100   1 O    8      -3.450000   -3.980000   31.890001       6.0000     15.9994
  101   2 H    1      -3.410000   -4.820000   31.290001       1.0000      1.0079
  102   2 H    1      -4.330000   -4.090000   32.210003       1.0000      1.0079
  103   1 O    8      12.710000   10.000000   21.660002       6.0000     15.9994
  104   2 H    1      12.830001   10.250001   20.650002       1.0000      1.0079
  105   2 H    1      -3.590000    9.320001   21.830002       1.0000      1.0079
  106   1 O    8       0.350000   11.290001    9.400001       6.0000     15.9994
  107   2 H    1       0.770000   12.230001    9.280001       1.0000      1.0079
  108   2 H    1       0.980000   10.670000    9.030001       1.0000      1.0079
  109   1 O    8      20.130001   10.460000    8.950001       6.0000     15.9994
  110   2 H    1      20.010002   10.240001    7.950000       1.0000      1.0079
  111   2 H    1      19.920002    9.550000    9.330000       1.0000      1.0079
  112   1 O    8     -16.310001   16.790001   26.130001       6.0000     15.9994
  113   2 H    1     -17.210001   17.210001   26.310001       1.0000      1.0079
  114   2 H    1     -16.530001   16.130001   25.430002       1.0000      1.0079
  115   1 O    8      -0.030000   20.590000   16.820000       6.0000     15.9994
  116   2 H    1       0.750000   20.930002   17.290001       1.0000      1.0079
  117   2 H    1       0.370000   20.290001   15.980000       1.0000      1.0079
  118   1 O    8     -14.590001    8.110001    9.760000       6.0000     15.9994
  119   2 H    1     -14.930000    8.340000   10.670000       1.0000      1.0079
  120   2 H    1     -15.430001    7.860000    9.250001       1.0000      1.0079
  121   1 O    8       7.830000    4.230000   20.800001       6.0000     15.9994
  122   2 H    1       8.680000    4.330000   21.340000       1.0000      1.0079
  123   2 H    1       7.450001    3.410000   21.180000       1.0000      1.0079
  124   1 O    8     -19.980001    8.110001   18.670002       6.0000     15.9994
  125   2 H    1     -27.750000   22.610001   19.430000       1.0000      1.0079
  126   2 H    1     -20.040001    9.100000   18.690001       1.0000      1.0079
  127   1 O    8      15.090000   -3.530000   13.930000       6.0000     15.9994
  128   2 H    1      15.360001   -4.330000   14.470000       1.0000      1.0079
  129   2 H    1       5.950000   10.580001   13.460001       1.0000      1.0079
  130   1 O    8       2.630000   -0.730000   30.080002       6.0000     15.9994
  131   2 H    1       2.700000   -0.310000   29.230001       1.0000      1.0079
  132   2 H    1       3.480000   -0.730000   30.630001       1.0000      1.0079
  133   1 O    8     -17.050001   18.130001   18.210001       6.0000     15.9994
  134   2 H    1     -17.390001   18.440001   19.120001       1.0000      1.0079
  135   2 H    1     -16.910002   18.950001   17.670000       1.0000      1.0079
  136   1 O    8      -9.540001    1.910000   22.150002       6.0000     15.9994
  137   2 H    1      -8.730000    1.500000   22.590000       1.0000      1.0079
  138   2 H    1     -10.160000    1.180000   21.820002       1.0000      1.0079
  139   1 O    8      -5.690000    6.960001   16.750000       6.0000     15.9994
  140   2 H    1      -4.820000    6.480000   16.800001       1.0000      1.0079
  141   2 H    1      -6.010000    7.190001   17.660000       1.0000      1.0079
  142   1 O    8       7.040000   16.720001    8.160001       6.0000     15.9994
  143   2 H    1       7.570000   15.850000    8.360001       1.0000      1.0079
  144   2 H    1       7.580000   17.530001    8.520000       1.0000      1.0079
  145   1 O    8     -10.810001   28.670002   11.600000       6.0000     15.9994
  146   2 H    1       5.460000   29.280003   11.980001       1.0000      1.0079
  147   2 H    1     -11.130000   27.750000   11.840000       1.0000      1.0079
  148   1 O    8     -16.340000    9.610001   24.560001       6.0000     15.9994
  149   2 H    1     -15.910001    9.290000   23.680000       1.0000      1.0079
  150   2 H    1     -15.670000    9.980000   25.230000       1.0000      1.0079
  151   1 O    8       2.290000   10.150002   26.720001       6.0000     15.9994
  152   2 H    1       2.340000   11.080000   27.210003       1.0000      1.0079
  153   2 H    1       3.180000   10.110001   26.290001       1.0000      1.0079
  154   1 O    8       5.990000   -4.620000   32.310001       6.0000     15.9994
  155   2 H    1       5.930000   -4.380000   33.260002       1.0000      1.0079
  156   2 H    1       5.240001   -5.210000   32.210003       1.0000      1.0079
  157   1 O    8      -5.020000   -1.870000   24.840002       6.0000     15.9994
  158   2 H    1      -4.450000   -2.120000   24.030001       1.0000      1.0079
  159   2 H    1      -4.680000   -0.990000   25.240002       1.0000      1.0079
  160   1 O    8       5.890000   -0.480000    9.020000       6.0000     15.9994
  161   2 H    1       5.950000   -0.400000   10.010000       1.0000      1.0079
  162   2 H    1       5.000000   -0.220000    8.740000       1.0000      1.0079
  163   1 O    8      25.270002   -7.030000   26.320002       6.0000     15.9994
  164   2 H    1      24.990002   -6.730001   27.260000       1.0000      1.0079
  165   2 H    1      25.330002   -6.210001   25.750000       1.0000      1.0079
  166   1 O    8       2.560000   12.160001   16.550001       6.0000     15.9994
  167   2 H    1       1.850000   11.940001   16.000000       1.0000      1.0079
  168   2 H    1       2.350000   12.830001   17.250000       1.0000      1.0079
  169   1 O    8     -28.440001    8.730000   30.070002       6.0000     15.9994
  170   2 H    1     -12.520000    8.690001   29.700001       1.0000      1.0079
  171   2 H    1     -11.270000    7.850000   30.420000       1.0000      1.0079
  172   1 O    8       5.060000    3.320000   15.220001       6.0000     15.9994
  173   2 H    1       4.360000    3.910000   15.460001       1.0000      1.0079
  174   2 H    1       5.340000    2.810000   16.049999       1.0000      1.0079
  175   1 O    8       1.390000   18.950001   24.970001       6.0000     15.9994
  176   2 H    1       0.630000   19.540001   24.730000       1.0000      1.0079
  177   2 H    1       1.060000   18.140001   25.440002       1.0000      1.0079
  178   1 O    8       4.860000   12.600001   29.500000       6.0000     15.9994
  179   2 H    1       4.030000   12.350000   28.960001       1.0000      1.0079
  180   2 H    1       4.860000   11.720000   30.010002       1.0000      1.0079
  181   1 O    8      13.430000    1.670000   28.010002       6.0000     15.9994
  182   2 H    1      14.160000    1.090000   28.350000       1.0000      1.0079
  183   2 H    1      12.730000    1.660000   28.720001       1.0000      1.0079
  184   1 O    8       8.570001    8.400001   32.560001       6.0000     15.9994
  185   2 H    1       9.110001    7.920001   33.220001       1.0000      1.0079
  186   2 H    1       8.960000    8.040000   31.700001       1.0000      1.0079
  187   1 O    8       5.850000   24.680002   14.250001       6.0000     15.9994
  188   2 H    1       6.020000   23.820002   13.690001       1.0000      1.0079
  189   2 H    1       5.100000   24.460001   14.990001       1.0000      1.0079
  190   1 O    8      -2.580000   14.130001   24.880001       6.0000     15.9994
  191   2 H    1      -1.920000   13.640001   25.550001       1.0000      1.0079
  192   2 H    1      -2.580000   15.050001   25.230000       1.0000      1.0079
  193   1 O    8      -1.770000    7.880001   21.430000       6.0000     15.9994
  194   2 H    1      -1.150000    7.170000   21.540001       1.0000      1.0079
  195   2 H    1      -2.400000    7.660000   22.139999       1.0000      1.0079
  196   1 O    8     -17.500002   12.730000   26.420002       6.0000     15.9994
  197   2 H    1     -16.830002   12.850000   25.700001       1.0000      1.0079
  198   2 H    1     -17.130001   12.630000   27.250002       1.0000      1.0079
  199   1 O    8      -7.200000   17.120001   17.720001       6.0000     15.9994
  200   2 H    1      -8.130000   16.800001   17.860001       1.0000      1.0079
  201   2 H    1      -6.620001   16.380001   17.830002       1.0000      1.0079
  202   1 O    8       4.400000   13.680000   12.400000       6.0000     15.9994
  203   2 H    1       4.300000   14.430000   13.060001       1.0000      1.0079
  204   2 H    1       4.250000   14.010000   11.450001       1.0000      1.0079
  205   1 O    8      19.240002   -7.320001   12.050000       6.0000     15.9994
  206   2 H    1      10.770000    6.300001   12.190001       1.0000      1.0079
  207   2 H    1      20.190001   -7.120000   12.100000       1.0000      1.0079
  208   1 O    8       1.370000  -21.930000   20.070002       6.0000     15.9994
  209   2 H    1       1.040000  -21.220001   19.450001       1.0000      1.0079
  210   2 H    1       0.720000  -22.660000   19.940001       1.0000      1.0079
  211   1 O    8      10.570001   -2.340000   28.460003       6.0000     15.9994
  212   2 H    1      10.540000   -1.310000   28.350000       1.0000      1.0079
  213   2 H    1       9.930000   -2.580000   29.210003       1.0000      1.0079
  214   1 O    8      -0.100000   -0.120000   14.440001       6.0000     15.9994
  215   2 H    1      -0.500000   -0.520000   13.650000       1.0000      1.0079
  216   2 H    1       0.020000    0.830000   14.150001       1.0000      1.0079
  217   1 O    8     -13.050001    2.770000   32.490002       6.0000     15.9994
  218   2 H    1     -13.350000    3.110000   33.410000       1.0000      1.0079
  219   2 H    1     -13.720001    3.300000   32.050003       1.0000      1.0079
  220   1 O    8      16.310001    5.410000   20.400002       6.0000     15.9994
  221   2 H    1      15.620001    5.280000   19.720001       1.0000      1.0079
  222   2 H    1      16.600000    4.470000   20.459999       1.0000      1.0079
  223   1 O    8     -11.200000   10.690001   23.150002       6.0000     15.9994
  224   2 H    1       6.180000   11.460000   22.810001       1.0000      1.0079
  225   2 H    1     -11.910001   10.490000   22.470001       1.0000      1.0079
  226   1 O    8       2.060000   34.270000    8.420001       6.0000     15.9994
  227   2 H    1       2.300000   35.230003    8.380001       1.0000      1.0079
  228   2 H    1      19.410002   33.960003    9.280001       1.0000      1.0079
  229   1 O    8       0.120000    9.130000   18.530001       6.0000     15.9994
  230   2 H    1      -0.200000    9.010000   17.610001       1.0000      1.0079
  231   2 H    1      -0.190000   10.000000   18.810001       1.0000      1.0079
  232   1 O    8       5.830000    8.370000   33.460003       6.0000     15.9994
  233   2 H    1       6.740000    8.410000   33.180000       1.0000      1.0079
  234   2 H    1       5.490000    9.310000   33.300003       1.0000      1.0079
  235   1 O    8     -12.940001    7.430000   24.420002       6.0000     15.9994
  236   2 H    1     -12.830001    8.240001   24.900000       1.0000      1.0079
  237   2 H    1     -12.470001    6.710000   24.930000       1.0000      1.0079
  238   1 O    8       3.220000   -4.430000   31.860001       6.0000     15.9994
  239   2 H    1      -5.660000   10.380001   30.990002       1.0000      1.0079
  240   2 H    1       3.310000   -3.590000   32.290001       1.0000      1.0079
  241   1 O    8       2.470000   -3.760000   23.750000       6.0000     15.9994
  242   2 H    1       2.120000   -3.160000   23.059999       1.0000      1.0079
  243   2 H    1       3.290000   -4.030000   23.260002       1.0000      1.0079
  244   1 O    8       4.640000   -4.060000    9.230001       6.0000     15.9994
  245   2 H    1       5.210000   -3.590000    8.580000       1.0000      1.0079
  246   2 H    1       3.760000   -4.210001    8.840000       1.0000      1.0079
  247   1 O    8      11.970000    9.610001   16.350000       6.0000     15.9994
  248   2 H    1      11.590000    8.640000   16.340000       1.0000      1.0079
  249   2 H    1      12.400000    9.820001   17.190001       1.0000      1.0079
  250   1 O    8      16.260000   14.660001   29.550001       6.0000     15.9994
  251   2 H    1      17.030001   14.750000   28.910000       1.0000      1.0079
  252   2 H    1      15.410002   14.660001   28.980003       1.0000      1.0079
  253   1 O    8      -4.740000   15.740002    8.980000       6.0000     15.9994
  254   2 H    1      -5.280000   15.820000    9.850000       1.0000      1.0079
  255   2 H    1      -5.410000   15.850000    8.190001       1.0000      1.0079
  256   1 O    8       6.820001   -9.090000   25.630001       6.0000     15.9994
  257   2 H    1       7.490000   -8.400001   25.890003       1.0000      1.0079
  258   2 H    1       6.420000   -9.470000   26.440001       1.0000      1.0079
  259   1 O    8     -17.510000   14.970001   14.630001       6.0000     15.9994
  260   2 H    1     -18.140001   14.740001   15.330001       1.0000      1.0079
  261   2 H    1     -16.760002   15.470000   15.050001       1.0000      1.0079
  262   1 O    8      -3.430000   11.710000   12.070000       6.0000     15.9994
  263   2 H    1      -3.130000   11.280001   11.220001       1.0000      1.0079
  264   2 H    1      -3.020000   11.280001   12.830001       1.0000      1.0079
  265   1 O    8       4.050000  -13.360001   14.270000       6.0000     15.9994
  266   2 H    1       4.920000  -12.820001   14.520000       1.0000      1.0079
  267   2 H    1      12.160001    1.620000   13.430000       1.0000      1.0079
  268   1 O    8      -2.800000    7.980001   24.380001       6.0000     15.9994
  269   2 H    1      -3.800000    7.990000   24.500000       1.0000      1.0079
  270   2 H    1      -2.540000    7.110000   24.730000       1.0000      1.0079
  271   1 O    8       3.010000    9.740001   17.840000       6.0000     15.9994
  272   2 H    1       3.160000   10.640000   17.280001       1.0000      1.0079
  273   2 H    1       2.050000    9.700001   17.840000       1.0000      1.0079
  274   1 O    8     -12.130001    9.740001   25.810001       6.0000     15.9994
  275   2 H    1     -11.520000   10.020000   25.090000       1.0000      1.0079
  276   2 H    1     -11.440001    9.630001   26.510000       1.0000      1.0079
  277   1 O    8      -3.060000    6.130000   16.370001       6.0000     15.9994
  278   2 H    1     -19.230001    6.870000   16.210001       1.0000      1.0079
  279   2 H    1      -3.040000    5.640000   15.500001       1.0000      1.0079
  280   1 O    8      27.550001   -5.710001   32.830002       6.0000     15.9994
  281   2 H    1      27.150002   -5.590000   33.780003       1.0000      1.0079
  282   2 H    1      27.970001   -6.620001   32.800003       1.0000      1.0079
  283   1 O    8       9.400001   -1.910000   24.050003       6.0000     15.9994
  284   2 H    1       0.720000   12.340001   23.160002       1.0000      1.0079
  285   2 H    1      10.420000   -1.790000   24.100000       1.0000      1.0079
  286   1 O    8     -29.370001   25.380001   19.040001       6.0000     15.9994
  287   2 H    1     -13.500000   25.350000   19.100000       1.0000      1.0079
  288   2 H    1     -28.900002   26.330002   18.980001       1.0000      1.0079
  289   1 O    8      -1.980000    4.440001   23.020000       6.0000     15.9994
  290   2 H    1      -1.260000    4.850000   22.460001       1.0000      1.0079
  291   2 H    1      -1.830000    4.840000   23.970001       1.0000      1.0079
  292   1 O    8       9.490001    4.590000   14.740001       6.0000     15.9994
  293   2 H    1       8.740000    4.190001   14.090000       1.0000      1.0079
  294   2 H    1       9.710001    3.720000   15.210000       1.0000      1.0079
  295   1 O    8       6.810000    9.310000   27.980001       6.0000     15.9994
  296   2 H    1       6.340000    9.440001   28.840000       1.0000      1.0079
  297   2 H    1       7.440000   10.130000   27.870003       1.0000      1.0079
  298   1 O    8       5.380001   19.070000   27.730003       6.0000     15.9994
  299   2 H    1       4.450000   19.240002   27.530001       1.0000      1.0079
  300   2 H    1       5.570001   18.100000   27.850000       1.0000      1.0079
  301   1 O    8      -1.160000   -1.700000   22.800003       6.0000     15.9994
  302   2 H    1      -1.300000   -1.140000   23.600002       1.0000      1.0079
  303   2 H    1      -1.090000   -1.170000   21.990002       1.0000      1.0079
  304   1 O    8       7.990000    1.240000    9.110001       6.0000     15.9994
  305   2 H    1       7.580000    1.240000    8.180000       1.0000      1.0079
  306   2 H    1       8.740000    1.980000    9.080001       1.0000      1.0079
  307   1 O    8     -10.760001    9.410001    8.180000       6.0000     15.9994
  308   2 H    1     -11.180000    8.550000    8.490001       1.0000      1.0079
  309   2 H    1      -9.800000    9.250001    8.160001       1.0000      1.0079
  310   1 O    8      -6.840000   23.520000   22.310001       6.0000     15.9994
  311   2 H    1      -6.500000   24.310001   21.770000       1.0000      1.0079
  312   2 H    1      -6.940000   22.850000   21.639999       1.0000      1.0079
  313   1 O    8       9.260000   15.680000   31.050003       6.0000     15.9994
  314   2 H    1       8.650001   15.030001   31.320002       1.0000      1.0079
  315   2 H    1       9.990001   15.090000   30.820004       1.0000      1.0079
  316   1 O    8      11.010000   -3.380000   13.440001       6.0000     15.9994
  317   2 H    1      10.110001   -3.160000   13.610001       1.0000      1.0079
  318   2 H    1      11.340000   -2.470000   13.220000       1.0000      1.0079
  319   1 O    8       7.860000   12.600001    9.860001       6.0000     15.9994
  320   2 H    1       6.960001   12.280001    9.560000       1.0000      1.0079
  321   2 H    1       8.410000   11.800001    9.800000       1.0000      1.0079
  322   1 O    8       3.740000    3.530000   19.180000       6.0000     15.9994
  323   2 H    1       2.840000    3.170000   19.160002       1.0000      1.0079
  324   2 H    1       3.700000    4.430000   18.830002       1.0000      1.0079
  325   1 O    8      16.010000    8.190001   29.120003       6.0000     15.9994
  326   2 H    1      16.460001    8.050001   30.070002       1.0000      1.0079
  327   2 H    1      15.420000    8.960000   29.300001       1.0000      1.0079
  328   1 O    8      -5.880000   12.880001   11.520000       6.0000     15.9994
  329   2 H    1      -6.710000   12.510000   11.970000       1.0000      1.0079
  330   2 H    1      -5.170000   12.310000   11.930000       1.0000      1.0079
  331   1 O    8     -10.170001   14.550000   29.210003       6.0000     15.9994
  332   2 H    1     -10.440001   13.700001   28.860001       1.0000      1.0079
  333   2 H    1      -9.320001   14.740001   28.770000       1.0000      1.0079
  334   1 O    8      -6.470000    4.610000   32.440002       6.0000     15.9994
  335   2 H    1      -6.320000    3.820000   33.020000       1.0000      1.0079
  336   2 H    1      -5.860000    5.310000   32.820000       1.0000      1.0079
  337   1 O    8       2.880000   19.880001   27.170002       6.0000     15.9994
  338   2 H    1      10.890001    4.930000   26.320002       1.0000      1.0079
  339   2 H    1     -14.550000   19.560001   27.880001       1.0000      1.0079
  340   1 O    8      17.640001   26.040001   13.100000       6.0000     15.9994
  341   2 H    1      17.550001   25.110001   12.820001       1.0000      1.0079
  342   2 H    1      16.660002   26.280001   13.310001       1.0000      1.0079
  343   1 O    8      11.840000   14.220000   15.010000       6.0000     15.9994
  344   2 H    1      11.540001   13.290001   14.860001       1.0000      1.0079
  345   2 H    1      11.010000   14.760000   15.020000       1.0000      1.0079
  346   1 O    8       6.290000   -3.920000   29.590000       6.0000     15.9994
  347   2 H    1       5.890000   -3.500000   28.770000       1.0000      1.0079
  348   2 H    1       5.600000   -3.850000   30.280001       1.0000      1.0079
  349   1 O    8      18.100000    5.940001   23.620003       6.0000     15.9994
  350   2 H    1      18.770000    6.520000   24.100000       1.0000      1.0079
  351   2 H    1      18.090002    5.050000   24.160002       1.0000      1.0079
  352   1 O    8      11.700001    1.710000   23.740002       6.0000     15.9994
  353   2 H    1      12.350000    1.620000   22.959999       1.0000      1.0079
  354   2 H    1      11.410000    2.640000   23.650000       1.0000      1.0079
  355   1 O    8       1.580000   -3.700000   19.610001       6.0000     15.9994
  356   2 H    1       1.100000   -3.360000   18.840000       1.0000      1.0079
  357   2 H    1       1.390000   -4.730000   19.500000       1.0000      1.0079
  358   1 O    8      16.639999   15.960001   12.110001       6.0000     15.9994
  359   2 H    1      16.580002   15.490000   12.940001       1.0000      1.0079
  360   2 H    1      16.140001   15.460001   11.480000       1.0000      1.0079
  361   1 O    8      -3.290000   11.670000   27.200001       6.0000     15.9994
  362   2 H    1      -4.080000   11.160001   27.020000       1.0000      1.0079
  363   2 H    1      -2.610000   11.420001   26.500000       1.0000      1.0079
  364   1 O    8      -0.430000   11.480000   21.809999       6.0000     15.9994
  365   2 H    1      -1.330000   11.700001   22.250002       1.0000      1.0079
  366   2 H    1      -0.310000   10.540000   21.900002       1.0000      1.0079
  367   1 O    8      -5.770000   15.500001   11.430000       6.0000     15.9994
  368   2 H    1      -5.710001   14.570000   11.750001       1.0000      1.0079
  369   2 H    1      -5.010000   15.900001   11.930000       1.0000      1.0079
  370   1 O    8     -14.010000   -6.510000   33.390003       6.0000     15.9994
  371   2 H    1     -13.140000   -7.050000   33.080002       1.0000      1.0079
  372   2 H    1     -13.780001   -5.620000   33.090004       1.0000      1.0079
  373   1 O    8      -0.740000   20.380001   24.890001       6.0000     15.9994
  374   2 H    1      -0.660000   21.080000   25.570002       1.0000      1.0079
  375   2 H    1      -1.180000   20.780001   24.070000       1.0000      1.0079
  376   1 O    8      -7.390000   12.460001   17.150000       6.0000     15.9994
  377   2 H    1      -6.760001   12.320002   16.310001       1.0000      1.0079
  378   2 H    1      -8.020000   13.140000   16.850000       1.0000      1.0079
  379   1 O    8       7.850000   -8.480000   33.260002       6.0000     15.9994
  380   2 H    1       7.930000   -7.620000   32.800003       1.0000      1.0079
  381   2 H    1       8.590000   -9.120001   33.150002       1.0000      1.0079
  382   1 O    8      -6.710000    4.780000   22.369999       6.0000     15.9994
  383   2 H    1      -6.780000    4.470000   23.340000       1.0000      1.0079
  384   2 H    1      -6.770000    5.760000   22.430000       1.0000      1.0079
  385   1 O    8       1.790000   16.740000   15.680000       6.0000     15.9994
  386   2 H    1       1.950000   16.460001   16.650002       1.0000      1.0079
  387   2 H    1       2.620000   16.630001   15.200001       1.0000      1.0079
  388   1 O    8      -4.550000    6.000000    8.770000       6.0000     15.9994
  389   2 H    1      -4.790000    5.380001    8.090000       1.0000      1.0079
  390   2 H    1      -4.130000    5.450000    9.490001       1.0000      1.0079
  391   1 O    8       4.620000   16.580002    8.010000       6.0000     15.9994
  392   2 H    1       4.110000   15.810001    8.430000       1.0000      1.0079
  393   2 H    1       5.610001   16.470001    8.040000       1.0000      1.0079
  394   1 O    8       8.720000   17.850000   32.580002       6.0000     15.9994
  395   2 H    1      17.480000    2.320000   32.280003       1.0000      1.0079
  396   2 H    1       7.790000   18.050001   32.320000       1.0000      1.0079
  397   1 O    8      -0.860000    1.810000   23.250000       6.0000     15.9994
  398   2 H    1      -1.460000    2.590000   23.230001       1.0000      1.0079
  399   2 H    1      -0.070000    2.210000   23.800001       1.0000      1.0079
  400   1 O    8      -0.160000    8.280001   31.880001       6.0000     15.9994
  401   2 H    1      -0.870000    8.950001   32.150002       1.0000      1.0079
  402   2 H    1       0.760000    8.490001   32.130001       1.0000      1.0079
  403   1 O    8      24.790001   23.180000   16.049999       6.0000     15.9994
  404   2 H    1      24.240000   23.840000   15.620001       1.0000      1.0079
  405   2 H    1      25.630001   23.040001   15.390000       1.0000      1.0079
  406   1 O    8       2.710000   -1.630000   33.250000       6.0000     15.9994
  407   2 H    1       1.740000   -1.540000   33.139999       1.0000      1.0079
  408   2 H    1       3.180000   -0.770000   33.000000       1.0000      1.0079
  409   1 O    8      17.160000    2.130000   11.510000       6.0000     15.9994
  410   2 H    1      16.670000    1.290000   11.400002       1.0000      1.0079
  411   2 H    1      18.110001    1.840000   11.570001       1.0000      1.0079
  412   1 O    8     -13.550000   -7.940001   19.870001       6.0000     15.9994
  413   2 H    1     -12.970000   -7.450001   19.300001       1.0000      1.0079
  414   2 H    1     -13.060001   -8.720000   20.350000       1.0000      1.0079
  415   1 O    8     -12.760000   14.580001    9.570000       6.0000     15.9994
  416   2 H    1     -12.410001   13.700001    9.130000       1.0000      1.0079
  417   2 H    1     -13.730000   14.340000    9.530001       1.0000      1.0079
  418   1 O    8      24.970001   47.660004   13.350000       6.0000     15.9994
  419   2 H    1      25.750000   47.650002   14.060000       1.0000      1.0079
  420   2 H    1      25.250000   47.020000   12.640000       1.0000      1.0079
  421   1 O    8      22.750000    5.000000    8.370000       6.0000     15.9994
  422   2 H    1      23.740002    5.200000    8.350000       1.0000      1.0079
  423   2 H    1      22.670002    3.980000    8.790001       1.0000      1.0079
  424   1 O    8       2.440000   16.400002   32.360001       6.0000     15.9994
  425   2 H    1       3.330000   16.200001   32.770000       1.0000      1.0079
  426   2 H    1      10.310000    0.940000   32.150002       1.0000      1.0079
  427   1 O    8       7.000000   14.530001   31.860001       6.0000     15.9994
  428   2 H    1       6.490001   15.250001   32.330002       1.0000      1.0079
  429   2 H    1       6.710000   14.670001   30.860003       1.0000      1.0079
  430   1 O    8      -0.170000   11.690001   19.200001       6.0000     15.9994
  431   2 H    1      -0.310000   11.780001   20.210001       1.0000      1.0079
  432   2 H    1      -1.030000   12.060001   18.820002       1.0000      1.0079
  433   1 O    8      -7.590001    0.810000   23.760002       6.0000     15.9994
  434   2 H    1      -6.570000    0.880000   23.690002       1.0000      1.0079
  435   2 H    1      -7.660000   -0.160000   23.760002       1.0000      1.0079
  436   1 O    8     -11.830001   17.110001   11.550001       6.0000     15.9994
  437   2 H    1     -12.680000   16.840002   11.080000       1.0000      1.0079
  438   2 H    1      -2.830000    1.760000   11.530000       1.0000      1.0079
  439   1 O    8      -5.260000   -8.550000   12.120000       6.0000     15.9994
  440   2 H    1      -4.350000   -8.950001   12.180000       1.0000      1.0079
  441   2 H    1      -5.060000   -7.970000   11.340000       1.0000      1.0079
  442   1 O    8       5.420001   -6.720000   12.550001       6.0000     15.9994
  443   2 H    1       5.730000   -7.650001   12.720001       1.0000      1.0079
  444   2 H    1       5.830000   -6.470000   11.650001       1.0000      1.0079
  445   1 O    8     -15.510001   13.790001    8.950001       6.0000     15.9994
  446   2 H    1     -16.180000   14.470000    9.130000       1.0000      1.0079
  447   2 H    1     -15.200001   13.820001    8.020000       1.0000      1.0079
  448   1 O    8       4.710000    7.350000    9.150001       6.0000     15.9994
  449   2 H    1       3.680000    7.400000    9.110001       1.0000      1.0079
  450   2 H    1      21.840000    6.400001    8.900001       1.0000      1.0079
  451   1 O    8      10.840001    7.900000   27.980001       6.0000     15.9994
  452   2 H    1      11.200000    8.700001   27.480001       1.0000      1.0079
  453   2 H    1      11.150000    7.160000   27.410002       1.0000      1.0079
  454   1 O    8       5.770000    6.170001   30.840000       6.0000     15.9994
  455   2 H    1       6.030001    5.880000   29.920002       1.0000      1.0079
  456   2 H    1       6.570000    6.130000   31.420002       1.0000      1.0079
  457   1 O    8      -6.470000    7.330000   22.360001       6.0000     15.9994
  458   2 H    1      -5.910000    7.330000   21.550003       1.0000      1.0079
  459   2 H    1      -7.130001    8.020000   22.180002       1.0000      1.0079
  460   1 O    8      12.620001    2.840000   19.660000       6.0000     15.9994
  461   2 H    1      12.580000    3.640000   20.270002       1.0000      1.0079
  462   2 H    1      -3.700000    3.150000   18.940001       1.0000      1.0079
  463   1 O    8      -7.960001  -18.020000   27.720001       6.0000     15.9994
  464   2 H    1      -7.650001  -18.070000   28.680000       1.0000      1.0079
  465   2 H    1      -8.310000  -17.070002   27.610001       1.0000      1.0079
  466   1 O    8       6.710000   -2.840000    8.130000       6.0000     15.9994
  467   2 H    1       7.600000   -3.120000    8.560000       1.0000      1.0079
  468   2 H    1       6.440001   -1.880000    8.490001       1.0000      1.0079
  469   1 O    8     -14.140000    2.900000   27.010002       6.0000     15.9994
  470   2 H    1     -14.790001    3.340000   27.630003       1.0000      1.0079
  471   2 H    1     -13.420000    3.600000   27.070000       1.0000      1.0079
  472   1 O    8       2.140000    6.820001   27.630003       6.0000     15.9994
  473   2 H    1       1.500000    7.280001   27.080002       1.0000      1.0079
  474   2 H    1       2.380000    7.470000   28.250000       1.0000      1.0079
  475   1 O    8      16.150002   10.580001   11.740000       6.0000     15.9994
  476   2 H    1      16.760002   10.910001   12.390001       1.0000      1.0079
  477   2 H    1      16.550001   10.730000   10.820000       1.0000      1.0079
  478   1 O    8     -15.140000   13.610001   18.730001       6.0000     15.9994
  479   2 H    1     -15.980000   13.120001   18.850000       1.0000      1.0079
  480   2 H    1     -15.330001   14.580001   18.600002       1.0000      1.0079
  481   1 O    8      11.550001   13.690001   25.200003       6.0000     15.9994
  482   2 H    1      11.270000   12.860001   24.799999       1.0000      1.0079
  483   2 H    1      12.550001   13.720001   25.060001       1.0000      1.0079
  484   1 O    8      -6.860001   18.200001   15.160000       6.0000     15.9994
  485   2 H    1      -6.340000   19.040001   15.230001       1.0000      1.0079
  486   2 H    1      -6.960001   17.940001   16.100002       1.0000      1.0079
  487   1 O    8      15.260000   29.180002   24.760000       6.0000     15.9994
  488   2 H    1      14.310001   29.330002   24.970001       1.0000      1.0079
  489   2 H    1      15.580001   29.940002   24.200001       1.0000      1.0079
  490   1 O    8      14.030001   19.370001   11.420001       6.0000     15.9994
  491   2 H    1      14.250001   18.570002   10.830001       1.0000      1.0079
  492   2 H    1      14.450001   19.080002   12.330000       1.0000      1.0079
  493   1 O    8       0.920000   10.820000   30.200003       6.0000     15.9994
  494   2 H    1      -8.390000   25.030001   30.160000       1.0000      1.0079
  495   2 H    1       1.070000   11.170001   31.110001       1.0000      1.0079
  496   1 O    8       5.680000   -2.340000   22.560001       6.0000     15.9994
  497   2 H    1      -3.470000   11.660000   22.190001       1.0000      1.0079
  498   2 H    1      -2.680000   11.970000   23.510000       1.0000      1.0079
  499   1 O    8       7.570000   13.730000   20.190001       6.0000     15.9994
  500   2 H    1       8.410000   13.870001   19.680000       1.0000      1.0079
  501   2 H    1       7.090001   13.170000   19.550001       1.0000      1.0079
  502   1 O    8      12.750001    4.730000   21.470001       6.0000     15.9994
  503   2 H    1      11.850000    4.590000   21.940001       1.0000      1.0079
  504   2 H    1      13.570002    4.620000   22.150002       1.0000      1.0079
  505   1 O    8      16.480001    6.280000   11.270000       6.0000     15.9994
[...]
    899      3      Pt         -0.00828262    -0.01367534    -0.00500405
    900      3      Pt         -0.00245826     0.00311867    -0.00651225
    901      3      Pt          0.01672453     0.00275741     0.00327390
    902      3      Pt         -0.02766802     0.00481026    -0.01763354
    903      3      Pt          0.01081053    -0.00547908     0.00510531
    904      3      Pt         -0.00907829    -0.00965248    -0.00939792
    905      3      Pt         -0.00226137    -0.00201354     0.00703613
    906      3      Pt          0.01044334    -0.00395286     0.02572618
 SUM OF ATOMIC FORCES           0.00822292    -0.01452529    -0.00880276     0.01887032

 STRESS| Analytical stress tensor [GPa]
 STRESS|                        x                   y                   z
 STRESS|      x       -2.60103072317E+00  -1.22257756317E-01   4.89406014873E-02
 STRESS|      y       -1.22257756317E-01  -2.46722637211E+00   7.10589131120E-02
 STRESS|      z        4.89406014873E-02   7.10589131120E-02  -5.89055230051E-01
 STRESS| 1/3 Trace                                            -1.88577077511E+00
 STRESS| Determinant                                          -3.75316547623E+00

 STRESS| Eigenvectors and eigenvalues of the analytical stress tensor [GPa]
 STRESS|                        1                   2                   3
 STRESS| Eigenvalues  -2.67644057249E+00  -2.39547828919E+00  -5.85393463652E-01
 STRESS|      x           0.857167369146     -0.514565429922      0.022057189333
 STRESS|      y           0.513664870856      0.857222951589      0.036293411497
 STRESS|      z          -0.037583263834     -0.019779524740      0.999097727292

 -------------------------------------------------------------------------------
 -                                                                             -
 -                                DBCSR STATISTICS                             -
 -                                                                             -
 -------------------------------------------------------------------------------
 COUNTER                                    TOTAL       BLAS       SMM       ACC
 flops     5 x     5 x   288          81469800000       0.0%    100.0%      0.0%
 flops     5 x     5 x   292          82601325000       0.0%    100.0%      0.0%
 flops    13 x     5 x   288          91905840000       0.0%    100.0%      0.0%
 flops     5 x    13 x   288          92001312000       0.0%    100.0%      0.0%
 flops    20 x    13 x   288          92349504000       0.0%    100.0%      0.0%
 flops    13 x    20 x   288          92630304000       0.0%    100.0%      0.0%
 flops    13 x     5 x   292          93182310000       0.0%    100.0%      0.0%
 flops     5 x    13 x   292          93279108000       0.0%    100.0%      0.0%
 flops    20 x    13 x   292          93632136000       0.0%    100.0%      0.0%
 flops    13 x    20 x   292          93916836000       0.0%    100.0%      0.0%
 flops    13 x    13 x   288          98122752000       0.0%    100.0%      0.0%
 flops    13 x    13 x   292          99485568000       0.0%    100.0%      0.0%
 flops     5 x    20 x   288         101187360000       0.0%    100.0%      0.0%
 flops    20 x     5 x   288         101321280000       0.0%    100.0%      0.0%
 flops     5 x    20 x   292         102592740000       0.0%    100.0%      0.0%
 flops    20 x     5 x   292         102728520000       0.0%    100.0%      0.0%
 flops    20 x    20 x   288         404974080000       0.0%    100.0%      0.0%
 flops    20 x    20 x   292         410598720000       0.0%    100.0%      0.0%
 flops     5 x     5 x   320         543132000000       0.0%    100.0%      0.0%
 flops    13 x     5 x   320         612705600000       0.0%    100.0%      0.0%
 flops     5 x    13 x   320         613342080000       0.0%    100.0%      0.0%
 flops    20 x    13 x   320         615663360000       0.0%    100.0%      0.0%
 flops    13 x    20 x   320         617535360000       0.0%    100.0%      0.0%
 flops    13 x    13 x   320         654151680000       0.0%    100.0%      0.0%
 flops     5 x    20 x   320         674582400000       0.0%    100.0%      0.0%
 flops    20 x     5 x   320         675475200000       0.0%    100.0%      0.0%
 flops    20 x    20 x   320        2699827200000       0.0%    100.0%      0.0%
 flops inhomo. stacks                           0       0.0%      0.0%      0.0%
 flops total                        10.034394E+12       0.0%    100.0%      0.0%
 flops max/rank                    162.661875E+09       0.0%    100.0%      0.0%
 matmuls inhomo. stacks                         0       0.0%      0.0%      0.0%
 matmuls total                          144690600       0.0%    100.0%      0.0%
 number of processed stacks                384000       0.0%    100.0%      0.0%
 average stack size                                     0.0     376.8       0.0
 marketing flops                    28.546578E+12
 -------------------------------------------------------------------------------
 # multiplications                             75
 max memory usage/rank               1.877787E+09
 # max total images/rank                        1
 # max 3D layers                                1
 # MPI messages exchanged                   67200
 MPI messages size (bytes):
  total size                       201.809920E+09
  min size                           2.762496E+06
  max size                           3.077120E+06
  average size                       3.003124E+06
 MPI breakdown and total messages size (bytes):
             size <=      128                   0                        0
       128 < size <=     8192                   0                        0
      8192 < size <=    32768                   0                        0
     32768 < size <=   131072                   0                        0
    131072 < size <=  4194304               67200             201810000000
   4194304 < size <= 16777216                   0                        0
  16777216 < size                               0                        0
 -------------------------------------------------------------------------------
 -                                                                             -
 -                      DBCSR MESSAGE PASSING PERFORMANCE                      -
 -                                                                             -
 -------------------------------------------------------------------------------
 ROUTINE             CALLS      AVE VOLUME [Bytes]
 MP_Bcast               28                     12.
 MP_Allreduce          599                     10.
 MP_Alltoall          2100                1986077.
 MP_ISend             2400                1329597.
 MP_IRecv             2400                1310413.
 -------------------------------------------------------------------------------

 -------------------------------------------------------------------------------
 -                                                                             -
 -                                DBM STATISTICS                               -
 -                                                                             -
 -------------------------------------------------------------------------------
    M  x    N  x    K                                          COUNT     PERCENT
 -------------------------------------------------------------------------------

 -------------------------------------------------------------------------------
 -                                                                             -
 -                                GRID STATISTICS                              -
 -                                                                             -
 -------------------------------------------------------------------------------
 LP    KERNEL             BACKEND                              COUNT     PERCENT
 3     collocate general  REF                               52035675      18.87%
 3     integrate general  REF                               51399850      18.64%
 2     collocate general  REF                               49047825      17.79%
 2     integrate general  REF                               48393854      17.55%
 4     collocate general  REF                               36680175      13.30%
 4     integrate general  REF                               36191106      13.12%
 6     integrate general  REF                                 693809       0.25%
 5     integrate general  REF                                 653971       0.24%
 7     integrate general  REF                                 489069       0.18%
 0     collocate general  REF                                 115968       0.04%
 0     integrate general  REF                                  57984       0.02%
 -------------------------------------------------------------------------------

 MEMORY| Estimated peak process memory [MiB]                                2111

 -------------------------------------------------------------------------------
 ----                             MULTIGRID INFO                            ----
 -------------------------------------------------------------------------------
 count for grid        1:         731551          cutoff [a.u.]          200.00
 count for grid        2:         806531          cutoff [a.u.]           66.67
 count for grid        3:         740818          cutoff [a.u.]           22.22
 count for grid        4:         831124          cutoff [a.u.]            7.41
 total gridlevel count  :        3110024

 -------------------------------------------------------------------------------
 -                                                                             -
 -                         MESSAGE PASSING PERFORMANCE                         -
 -                                                                             -
 -------------------------------------------------------------------------------

 ROUTINE             CALLS      AVE VOLUME [Bytes]
 MP_Group                4
 MP_Bcast              250                2361462.
 MP_Allreduce         1299                   1926.
 MP_Sync                78
 MP_Alltoall          1666               14017810.
 MP_SendRecv           252                  13776.
 MP_ISendRecv        18900                 113680.
 MP_Wait             42308
 MP_ISend            21888                 340249.
 MP_IRecv            21888                 340249.
 MP_Recv               308                2460160.
 MP_Write_All            3                1540656.
 -------------------------------------------------------------------------------


 -------------------------------------------------------------------------------
 -                                                                             -
 -                           R E F E R E N C E S                               -
 -                                                                             -
 -------------------------------------------------------------------------------
 
 CP2K version 2022.1, the CP2K developers group (2022).
 CP2K is freely available from https://www.cp2k.org/ .

 Kuehne,Thomas D.; Iannuzzi,Marcella; Del Ben,Mauro;
 Rybkin,Vladimir V.; Seewald,Patrick; Stein,Frederick; Laino,Teodoro;
 Khaliullin,Rustam Z.; Schuett,Ole; Schiffmann,Florian; Golze,Dorothea;
 Wilhelm,Jan; Chulkov,Sergey; Bani-Hashemian,Mohammad Hossein;
 Weber,Valery; Borstnik,Urban; Taillefumier,Mathieu;
 Jakobovits,Alice Shoshana; Lazzaro,Alfio; Pabst,Hans; Mueller,Tiziano;
 Schade,Robert; Guidon,Manuel; Andermatt,Samuel; Holmberg,Nico;
 Schenter,Gregory K.; Hehn,Anna; Bussy,Augustin; Belleflamme,Fabian;
 Tabacchi,Gloria; Gloess,Andreas; Lass,Michael; Bethune,Iain;
 Mundy,Christopher J.; Plessl,Christian; Watkins,Matt;
 VandeVondele,Joost; Krack,Matthias; Hutter,Juerg. 
 The Journal of Chemical Physics, 152 (19), (2020). 
 CP2K: An electronic structure and molecular dynamics software package -
 Quickstep: Efficient and accurate electronic structure calculations.
 https://doi.org/10.1063/5.0007045

 Goerigk, Lars; Hansen, Andreas; Bauer, Christoph; Ehrlich, Stephan;
 Najibi, Asim; Grimme, Stefan. , 19 (48), (2017). 
 A look at the density functional theory zoo with the advanced GMTKN55 database
 for general main group thermochemistry, kinetics and noncovalent interactions.
 https://doi.org/10.1039/C7CP04913G

 Schuett, Ole; Messmer, Peter; Hutter, Juerg; VandeVondele, Joost. 
 Electronic Structure Calculations on Graphics Processing Units, John
 Wiley & Sons, Ltd, 173-190 (2016). 
 GPU-Accelerated Sparse Matrix-Matrix Multiplication for
 Linear Scaling Density Functional Theory.
 https://doi.org/10.1002/9781118670712.ch8

 Heinecke, A; Henry, G; Hutchinson, M; Pabst, H. 
 Proceedings of Intl. Supercomputing Conference, 981-991 (2016). 
 LIBXSMM: Accelerating Small Matrix Multiplications
 by Runtime Code Generation.
 https://doi.org/10.1109/SC.2016.83

 Borstnik, U; VandeVondele, J; Weber, V; Hutter, J. 
 PARALLEL COMPUTING, 40 (5-6), 47-58 (2014). 
 Sparse matrix multiplication: The distributed block-compressed sparse
 row library.
 https://doi.org/10.1016/j.parco.2014.03.012

 Hutter, J; Iannuzzi, M; Schiffmann, F; VandeVondele, J. 
 WIREs Comput Mol Sci., 4 (1), 15-25 (2014). 
 CP2K: atomistic simulations of condensed matter systems.
 https://doi.org/10.1002/wcms.1159

 Marek, A; Blum, V; Johanni, R; Havu, V; Lang, B; Auckenthaler, T;
 Heinecke, A; Bungartz, H; Lederer, H. 
 Journal of Physics: Condensed Matter, 26 (21), (2014). 
 The ELPA library: scalable parallel eigenvalue solutions for
 electronic structure
 theory and computational science.
 https://doi.org/10.1088/0953-8984/26/21/213201

 Grimme, S; Ehrlich, S; Goerigk, L. 
 JOURNAL OF COMPUTATIONAL CHEMISTRY, 32, 1456 (2011). 
 Effect of the damping function in dispersion corrected density functional theory.
 https://doi.org/10.1002/jcc.21759

 Grimme, S; Antony, J; Ehrlich, S; Krieg, H. 
 JOURNAL OF CHEMICAL PHYSICS, 132 (15), 154104 (2010). 
 A consistent and accurate ab initio parametrization of density
 functional dispersion correction (DFT-D) for the 94 elements H-Pu.
 https://doi.org/10.1063/1.3382344

 VandeVondele, J; Hutter, J. 
 JOURNAL OF CHEMICAL PHYSICS, 127 (11), 114105 (2007). 
 Gaussian basis sets for accurate calculations on molecular systems in
 gas and condensed phases.
 https://doi.org/10.1063/1.2770708

 Krack, M. 
 THEORETICAL CHEMISTRY ACCOUNTS, 114 (1-3), 145-152 (2005). 
 Pseudopotentials for H to Kr optimized for gradient-corrected
 exchange-correlation functionals.
 https://doi.org/10.1007/s00214-005-0655-y

 VandeVondele, J; Krack, M; Mohamed, F; Parrinello, M; Chassaing, T;
 Hutter, J. COMPUTER PHYSICS COMMUNICATIONS, 167 (2), 103-128 (2005). 
 QUICKSTEP: Fast and accurate density functional calculations using a
 mixed Gaussian and plane waves approach.
 https://doi.org/10.1016/j.cpc.2004.12.014

 Frigo, M; Johnson, SG. 
 PROCEEDINGS OF THE IEEE, 93 (2), 216-231 (2005). 
 The design and implementation of FFTW3.
 https://doi.org/10.1109/JPROC.2004.840301

 Hartwigsen, C; Goedecker, S; Hutter, J. 
 PHYSICAL REVIEW B, 58 (7), 3641-3662 (1998). 
 Relativistic separable dual-space Gaussian pseudopotentials from H to Rn.
 https://doi.org/10.1103/PhysRevB.58.3641

 Lippert, G; Hutter, J; Parrinello, M. 
 MOLECULAR PHYSICS, 92 (3), 477-487 (1997). 
 A hybrid Gaussian and plane wave density functional scheme.
 https://doi.org/10.1080/002689797170220

 Perdew, JP; Burke, K; Ernzerhof, M. 
 PHYSICAL REVIEW LETTERS, 77 (18), 3865-3868 (1996). 
 Generalized gradient approximation made simple.
 https://doi.org/10.1103/PhysRevLett.77.3865

 Goedecker, S; Teter, M; Hutter, J. 
 PHYSICAL REVIEW B, 54 (3), 1703-1710 (1996). 
 Separable dual-space Gaussian pseudopotentials.
 https://doi.org/10.1103/PhysRevB.54.1703


 -------------------------------------------------------------------------------
 -                                                                             -
 -                                T I M I N G                                  -
 -                                                                             -
 -------------------------------------------------------------------------------
 SUBROUTINE                       CALLS  ASD         SELF TIME        TOTAL TIME
                                MAXIMUM       AVERAGE  MAXIMUM  AVERAGE  MAXIMUM
 CP2K                                 1  1.0    0.027    0.039  887.882  887.884
 qs_forces                            1  2.0    0.002    0.003  887.496  887.499
 qs_energies                          1  3.0    0.000    0.000  875.019  875.027
 scf_env_do_scf                       1  4.0    0.000    0.001  866.763  867.005
 scf_env_do_scf_inner_loop           74  5.0    0.004    0.011  866.763  867.005
 qs_scf_new_mos                      74  6.0    0.005    0.012  353.026  353.692
 eigensolver                         74  7.0    0.007    0.010  327.913  328.304
 rebuild_ks_matrix                   75  7.0    0.000    0.000  274.584  274.632
 qs_ks_build_kohn_sham_matrix        75  8.0    0.012    0.030  274.583  274.632
 qs_ks_update_qs_env                 74  6.0    0.001    0.001  266.566  266.614
 qs_rho_update_rho_low               75  6.0    0.001    0.001  234.133  234.164
 calculate_rho_elec                  75  7.0    0.176    0.211  234.133  234.163
 sum_up_and_integrate                75  9.0    0.314    0.388  230.487  230.550
 integrate_v_rspace                  75 10.0    0.003    0.004  230.172  230.260
 grid_collocate_task_list            75  8.0  205.842  211.114  205.842  211.114
 grid_integrate_task_list            75 11.0  200.787  205.940  200.787  205.940
 cp_fm_diag_elpa                     74  8.0    0.001    0.001  192.249  192.731
 cp_fm_diag_elpa_base                74  9.0  189.304  189.983  191.932  192.008
 cp_fm_triangular_multiply          222  8.0  132.933  134.808  132.933  134.808
 pw_transfer                       1500 10.9    0.106    0.128   41.385   42.238
 rs_pw_transfer                     604 10.5    0.007    0.008   36.421   41.789
 fft_wrap_pw1pw2                   1350 12.0    0.013    0.019   40.911   41.715
 fft_wrap_pw1pw2_200                900 13.3    3.716    4.072   39.415   40.209
 qs_vxc_create                       75  9.0    0.002    0.003   38.811   39.039
 xc_vxc_pw_create                    75 10.0    0.691    0.742   38.808   39.037
 fft3d_ps                          1350 14.0   14.915   16.921   30.162   31.211
 density_rs2pw                       75  8.0    0.005    0.005   25.836   31.100
 xc_pw_derive                       450 12.0    0.008    0.009   24.679   25.868
 xc_rho_set_and_dset_create          75 11.0    0.366    0.399   20.797   22.230
 potential_pw2rs                     75 11.0    0.028    0.034   21.703   21.782
 mp_waitany                       21888 12.4   15.785   21.217   15.785   21.217
 rs_pw_transfer_RS2PW_200            77 10.0    4.832    5.356   14.399   19.727
 cp_dbcsr_plus_fm_fm_t_native        75  8.0    0.004    0.007   18.175   18.976
 calculate_dm_sparse                 74  7.0    0.023    0.029   18.212   18.960
 -------------------------------------------------------------------------------

 The number of warnings for this run is : 1
 
 -------------------------------------------------------------------------------
  **** **** ******  **  PROGRAM ENDED AT                 2023-11-26 17:54:43.047
 ***** ** ***  *** **   PROGRAM RAN ON                                     cu054
 **    ****   ******    PROGRAM RAN BY                                     jxzhu
 ***** **    ** ** **   PROGRAM PROCESS ID                                 47284
  **** **  *******  **  PROGRAM STOPPED IN /public/home/jxzhu/tmp_calc/af2075565
                                           805657d94fa4669dad6f4b174b0a4fb/calc/
                                           000700.000/pbc
