 DBCSR| CPU Multiplication driver                                           XSMM
 DBCSR| Multrec recursion limit                                              512
 DBCSR| Multiplication stack size                                           1000
 DBCSR| Maximum elements for images                                    UNLIMITED
 DBCSR| Multiplicative factor virtual images                                   1
 DBCSR| Use multiplication densification                                       T
 DBCSR| Multiplication size stacks                                             3
 DBCSR| Use memory pool for CPU allocation                                     F
 DBCSR| Number of 3D layers                                               SINGLE
 DBCSR| Use MPI memory allocation                                              F
 DBCSR| Use RMA algorithm                                                      F
 DBCSR| Use Communication thread                                               T
 DBCSR| Communication thread load                                             87
 DBCSR| MPI: My node id                                                        0
 DBCSR| MPI: Number of nodes                                                 128
 DBCSR| OMP: Current number of threads                                         1
 DBCSR| OMP: Max number of threads                                             1
 DBCSR| Split modifier for TAS multiplication algorithm                  1.0E+00


  **** **** ******  **  PROGRAM STARTED AT               2023-12-03 04:42:16.399
 ***** ** ***  *** **   PROGRAM STARTED ON                                 cu001
 **    ****   ******    PROGRAM STARTED BY                                 jxzhu
 ***** **    ** ** **   PROGRAM PROCESS ID                                 14199
  **** **  *******  **  PROGRAM STARTED IN /public/home/jxzhu/tmp_calc/37e9fa8dd
                                           567a9b50567d7c0764695c09ebbdcf5/calc/
                                           002700.000/search_lo.000000

 CP2K| version string:                                       CP2K version 2022.1
 CP2K| source code revision number:                                  git:2caeb6f
 CP2K| cp2kflags: omp libint fftw3 libxc elpa parallel mpi3 scalapack cosma xsmm
 CP2K|             plumed2 spglib mkl sirius libvori libbqb
 CP2K| is freely available from                            https://www.cp2k.org/
 CP2K| Program compiled at                           Mon Jul 3 17:37:06 CST 2023
 CP2K| Program compiled on                                                 mu003
 CP2K| Program compiled for                                                local
 CP2K| Data directory path                             /public/home/jxzhu/basis/
 CP2K| Input file name                                                 input.inp
 
 GLOBAL| Force Environment number                                              1
 GLOBAL| Basis set file name                                        BASIS_MOLOPT
 GLOBAL| Potential file name                                      GTH_POTENTIALS
 GLOBAL| MM Potential file name                                     MM_POTENTIAL
 GLOBAL| Coordinate file name                                          coord.xyz
 GLOBAL| Method name                                                        CP2K
 GLOBAL| Project name                                                       cp2k
 GLOBAL| Run type                                                   ENERGY_FORCE
 GLOBAL| FFT library                                                       FFTW3
 GLOBAL| Diagonalization library                                            ELPA
 GLOBAL| Minimum number of eigenvectors for ELPA usage                        16
 GLOBAL| Orthonormality check for eigenvectors                          DISABLED
 GLOBAL| Matrix multiplication library                                     COSMA
 GLOBAL| All-to-all communication in single precision                          F
 GLOBAL| FFTs using library dependent lengths                                  T
 GLOBAL| Grid backend                                                       AUTO
 GLOBAL| Global print level                                               MEDIUM
 GLOBAL| MPI I/O enabled                                                       T
 GLOBAL| Total number of message passing processes                           128
 GLOBAL| Number of threads for this process                                    1
 GLOBAL| This output is from process                                           0
 GLOBAL| Stack size for threads created by OpenMP (OMP_STACKSIZE)        default
 GLOBAL| CPU model name                 Intel(R) Xeon(R) Gold 6338 CPU @ 2.00GHz
 GLOBAL| CPUID                                                              1003

 MEMORY| system memory details [Kb]
 MEMORY|                        rank 0           min           max       average
 MEMORY| MemTotal            263619172     263619172     263619172     263619172
 MEMORY| MemFree             218176624     215801648     218177244     216988787
 MEMORY| Buffers                    20            20            36            28
 MEMORY| Cached                2011788        715384       2011788       1363586
 MEMORY| Slab                  1457900       1426500       1457900       1442200
 MEMORY| SReclaimable           245052        230216        245052        237634
 MEMORY| MemLikelyFree       220433484     216747284     220434104     218590035


 *** Fundamental physical constants (SI units) ***

 *** Literature: B. J. Mohr and B. N. Taylor,
 ***             CODATA recommended values of the fundamental physical
 ***             constants: 2006, Web Version 5.1
 ***             http://physics.nist.gov/constants

 Speed of light in vacuum [m/s]                             2.99792458000000E+08
 Magnetic constant or permeability of vacuum [N/A**2]       1.25663706143592E-06
 Electric constant or permittivity of vacuum [F/m]          8.85418781762039E-12
 Planck constant (h) [J*s]                                  6.62606896000000E-34
 Planck constant (h-bar) [J*s]                              1.05457162825177E-34
 Elementary charge [C]                                      1.60217648700000E-19
 Electron mass [kg]                                         9.10938215000000E-31
 Electron g factor [ ]                                     -2.00231930436220E+00
 Proton mass [kg]                                           1.67262163700000E-27
 Fine-structure constant                                    7.29735253760000E-03
 Rydberg constant [1/m]                                     1.09737315685270E+07
 Avogadro constant [1/mol]                                  6.02214179000000E+23
 Boltzmann constant [J/K]                                   1.38065040000000E-23
 Atomic mass unit [kg]                                      1.66053878200000E-27
 Bohr radius [m]                                            5.29177208590000E-11

 *** Conversion factors ***

 [u] -> [a.u.]                                              1.82288848426455E+03
 [Angstrom] -> [Bohr] = [a.u.]                              1.88972613288564E+00
 [a.u.] = [Bohr] -> [Angstrom]                              5.29177208590000E-01
 [a.u.] -> [s]                                              2.41888432650478E-17
 [a.u.] -> [fs]                                             2.41888432650478E-02
 [a.u.] -> [J]                                              4.35974393937059E-18
 [a.u.] -> [N]                                              8.23872205491840E-08
 [a.u.] -> [K]                                              3.15774647902944E+05
 [a.u.] -> [kJ/mol]                                         2.62549961709828E+03
 [a.u.] -> [kcal/mol]                                       6.27509468713739E+02
 [a.u.] -> [Pa]                                             2.94210107994716E+13
 [a.u.] -> [bar]                                            2.94210107994716E+08
 [a.u.] -> [atm]                                            2.90362800883016E+08
 [a.u.] -> [eV]                                             2.72113838565563E+01
 [a.u.] -> [Hz]                                             6.57968392072181E+15
 [a.u.] -> [1/cm] (wave numbers)                            2.19474631370540E+05
 [a.u./Bohr**2] -> [1/cm]                                   5.14048714338585E+03
 

 CELL_TOP| Volume [angstrom^3]:                                     17614.982639
 CELL_TOP| Vector a [angstrom    16.869     0.000     0.000   |a| =    16.869000
 CELL_TOP| Vector b [angstrom    -8.434    14.609     0.000   |b| =    16.869015
 CELL_TOP| Vector c [angstrom     0.000     0.000    71.478   |c| =    71.478000
 CELL_TOP| Angle (b,c), alpha [degree]:                                90.000000
 CELL_TOP| Angle (a,c), beta  [degree]:                                90.000000
 CELL_TOP| Angle (a,b), gamma [degree]:                               119.999970
 CELL_TOP| Numerically orthorhombic:                                          NO
 
 GENERATE|  Preliminary Number of Bonds generated:                             0
 GENERATE|  Achieved consistency in connectivity generation.

 CELL| Volume [angstrom^3]:                                         17614.982639
 CELL| Vector a [angstrom]:      16.869     0.000     0.000   |a| =    16.869000
 CELL| Vector b [angstrom]:      -8.434    14.609     0.000   |b| =    16.869015
 CELL| Vector c [angstrom]:       0.000     0.000    71.478   |c| =    71.478000
 CELL| Angle (b,c), alpha [degree]:                                    90.000000
 CELL| Angle (a,c), beta  [degree]:                                    90.000000
 CELL| Angle (a,b), gamma [degree]:                                   119.999970
 CELL| Numerically orthorhombic:                                              NO

 CELL_REF| Volume [angstrom^3]:                                     17614.982639
 CELL_REF| Vector a [angstrom    16.869     0.000     0.000   |a| =    16.869000
 CELL_REF| Vector b [angstrom    -8.434    14.609     0.000   |b| =    16.869015
 CELL_REF| Vector c [angstrom     0.000     0.000    71.478   |c| =    71.478000
 CELL_REF| Angle (b,c), alpha [degree]:                                90.000000
 CELL_REF| Angle (a,c), beta  [degree]:                                90.000000
 CELL_REF| Angle (a,b), gamma [degree]:                               119.999970
 CELL_REF| Numerically orthorhombic:                                          NO

 *******************************************************************************
 *******************************************************************************
 **                                                                           **
 **     #####                         ##              ##                      **
 **    ##   ##            ##          ##              ##                      **
 **   ##     ##                       ##            ######                    **
 **   ##     ##  ##   ##  ##   #####  ##  ##   ####   ##    #####    #####    **
 **   ##     ##  ##   ##  ##  ##      ## ##   ##      ##   ##   ##  ##   ##   **
 **   ##  ## ##  ##   ##  ##  ##      ####     ###    ##   ######   ######    **
 **    ##  ###   ##   ##  ##  ##      ## ##      ##   ##   ##       ##        **
 **     #######   #####   ##   #####  ##  ##  ####    ##    #####   ##        **
 **           ##                                                    ##        **
 **                                                                           **
 **                                                ... make the atoms dance   **
 **                                                                           **
 **            Copyright (C) by CP2K developers group (2000-2022)             **
 **                      J. Chem. Phys. 152, 194103 (2020)                    **
 **                                                                           **
 *******************************************************************************

 DFT| Spin restricted Kohn-Sham (RKS) calculation                            RKS
 DFT| Multiplicity                                                             1
 DFT| Number of spin states                                                    1
 DFT| Charge                                                                   0
 DFT| Self-interaction correction (SIC)                                       NO
 DFT| Cutoffs: density                                              1.000000E-10
 DFT|          gradient                                             1.000000E-10
 DFT|          tau                                                  1.000000E-10
 DFT|          cutoff_smoothing_range                               0.000000E+00
 DFT| XC density smoothing                                                  NONE
 DFT| XC derivatives                                                          PW

 FUNCTIONAL| PBE:
 FUNCTIONAL| J.P.Perdew, K.Burke, M.Ernzerhof, Phys. Rev. Letter, vol. 77, n 18,
 FUNCTIONAL|  pp. 3865-3868, (1996){spin unpolarized}                           

 vdW POTENTIAL|                                                   Pair Potential
 vdW POTENTIAL|          DFT-D3 (Version 3.1)
 vdW POTENTIAL|          Potential Form: S. Grimme et al, JCP 132: 154104 (2010)
 vdW POTENTIAL|          Zero Damping
 vdW POTENTIAL|          Cutoff Radius [Bohr]:                             20.00
 vdW POTENTIAL|          s6 Scaling Factor:                               1.0000
 vdW POTENTIAL|          sr6 Scaling Factor:                              1.2170
 vdW POTENTIAL|          s8 Scaling Factor:                               0.7220
 vdW POTENTIAL|          Cutoff for CN calculation:                   0.1000E-05

 QS| Method:                                                                 GPW
 QS| Density plane wave grid type                        NON-SPHERICAL FULLSPACE
 QS| Number of grid levels:                                                    4
 QS| Density cutoff [a.u.]:                                                200.0
 QS| Multi grid cutoff [a.u.]: 1) grid level                               200.0
 QS|                           2) grid level                                66.7
 QS|                           3) grid level                                22.2
 QS|                           4) grid level                                 7.4
 QS| Grid level progression factor:                                          3.0
 QS| Relative density cutoff [a.u.]:                                        20.0
 QS| Interaction thresholds: eps_pgf_orb:                                3.2E-07
 QS|                         eps_filter_matrix:                          0.0E+00
 QS|                         eps_core_charge:                            1.0E-15
 QS|                         eps_rho_gspace:                             1.0E-13
 QS|                         eps_rho_rspace:                             1.0E-13
 QS|                         eps_gvg_rspace:                             3.2E-07
 QS|                         eps_ppl:                                    1.0E-02
 QS|                         eps_ppnl:                                   3.2E-09


 ATOMIC KIND INFORMATION

  1. Atomic kind: O                                     Number of atoms:     103

     Orbital Basis Set                                        DZVP-MOLOPT-SR-GTH

       Number of orbital shell sets:                                           1
       Number of orbital shells:                                               5
       Number of primitive Cartesian functions:                                5
       Number of Cartesian basis functions:                                   14
       Number of spherical basis functions:                                   13
       Norm type:                                                              2

       Normalised Cartesian orbitals:

                        Set   Shell   Orbital            Exponent    Coefficient

                          1       1    2s               10.389228       0.396646
                                                         3.849621       0.208811
                                                         1.388401      -0.301641
                                                         0.496955      -0.274061
                                                         0.162492      -0.033677

                          1       2    3s               10.389228       0.303673
                                                         3.849621       0.240943
                                                         1.388401      -0.313066
                                                         0.496955      -0.043055
                                                         0.162492       0.213991

                          1       3    3px              10.389228      -1.530415
                                                         3.849621      -1.371928
                                                         1.388401      -0.761951
                                                         0.496955      -0.253695
                                                         0.162492      -0.035541
                          1       3    3py              10.389228      -1.530415
                                                         3.849621      -1.371928
                                                         1.388401      -0.761951
                                                         0.496955      -0.253695
                                                         0.162492      -0.035541
                          1       3    3pz              10.389228      -1.530415
                                                         3.849621      -1.371928
                                                         1.388401      -0.761951
                                                         0.496955      -0.253695
                                                         0.162492      -0.035541

                          1       4    4px              10.389228      -0.565392
                                                         3.849621      -0.038231
                                                         1.388401      -0.382373
                                                         0.496955       0.179070
                                                         0.162492       0.122714
                          1       4    4py              10.389228      -0.565392
                                                         3.849621      -0.038231
                                                         1.388401      -0.382373
                                                         0.496955       0.179070
                                                         0.162492       0.122714
                          1       4    4pz              10.389228      -0.565392
                                                         3.849621      -0.038231
                                                         1.388401      -0.382373
                                                         0.496955       0.179070
                                                         0.162492       0.122714

                          1       5    4dx2             10.389228       1.867377
                                                         3.849621       0.670994
                                                         1.388401       1.353441
                                                         0.496955       0.273538
                                                         0.162492       0.006620
                          1       5    4dxy             10.389228       3.234392
                                                         3.849621       1.162195
                                                         1.388401       2.344229
                                                         0.496955       0.473781
                                                         0.162492       0.011466
                          1       5    4dxz             10.389228       3.234392
                                                         3.849621       1.162195
                                                         1.388401       2.344229
                                                         0.496955       0.473781
                                                         0.162492       0.011466
                          1       5    4dy2             10.389228       1.867377
                                                         3.849621       0.670994
                                                         1.388401       1.353441
                                                         0.496955       0.273538
                                                         0.162492       0.006620
                          1       5    4dyz             10.389228       3.234392
                                                         3.849621       1.162195
                                                         1.388401       2.344229
                                                         0.496955       0.473781
                                                         0.162492       0.011466
                          1       5    4dz2             10.389228       1.867377
                                                         3.849621       0.670994
                                                         1.388401       1.353441
                                                         0.496955       0.273538
                                                         0.162492       0.006620

       Atomic covalent radius [Angstrom]:                                  0.730

       Atomic van der Waals radius [Angstrom]:                             1.520

     GTH Potential information for                                    GTH-PBE-q6

       Description:                       Goedecker-Teter-Hutter pseudopotential
                                           Goedecker et al., PRB 54, 1703 (1996)
                                          Hartwigsen et al., PRB 58, 3641 (1998)
                                                      Krack, TCA 114, 145 (2005)

       Gaussian exponent of the core charge distribution:               8.360253
       Electronic configuration (s p d ...):                               2   4

       Parameters of the local part of the GTH pseudopotential:

                          rloc        C1          C2          C3          C4
                        0.244554  -16.667215    2.487311

       Parameters of the non-local part of the GTH pseudopotential:

                   l      r(l)      h(i,j,l)

                   0    0.220956   18.337458
                   1    0.211332

  2. Atomic kind: H                                     Number of atoms:     206

     Orbital Basis Set                                        DZVP-MOLOPT-SR-GTH

       Number of orbital shell sets:                                           1
       Number of orbital shells:                                               3
       Number of primitive Cartesian functions:                                5
       Number of Cartesian basis functions:                                    5
       Number of spherical basis functions:                                    5
       Norm type:                                                              2

       Normalised Cartesian orbitals:

                        Set   Shell   Orbital            Exponent    Coefficient

                          1       1    2s               10.068468      -0.133023
                                                         2.680223      -0.177618
                                                         0.791502      -0.258419
                                                         0.239116      -0.107525
                                                         0.082193      -0.014019

                          1       2    3s               10.068468       0.344673
                                                         2.680223       1.819821
                                                         0.791502      -0.999069
                                                         0.239116       0.017430
                                                         0.082193       0.082660

                          1       3    3px              10.068468       0.155326
                                                         2.680223       0.367157
                                                         0.791502       0.311480
                                                         0.239116       0.080105
                                                         0.082193       0.033440
                          1       3    3py              10.068468       0.155326
                                                         2.680223       0.367157
                                                         0.791502       0.311480
                                                         0.239116       0.080105
                                                         0.082193       0.033440
                          1       3    3pz              10.068468       0.155326
                                                         2.680223       0.367157
                                                         0.791502       0.311480
                                                         0.239116       0.080105
                                                         0.082193       0.033440

       Atomic covalent radius [Angstrom]:                                  0.320

       Atomic van der Waals radius [Angstrom]:                             1.090

     GTH Potential information for                                    GTH-PBE-q1

       Description:                       Goedecker-Teter-Hutter pseudopotential
                                           Goedecker et al., PRB 54, 1703 (1996)
                                          Hartwigsen et al., PRB 58, 3641 (1998)
                                                      Krack, TCA 114, 145 (2005)

       Gaussian exponent of the core charge distribution:              12.500000
       Electronic configuration (s p d ...):                                   1

       Parameters of the local part of the GTH pseudopotential:

                          rloc        C1          C2          C3          C4
                        0.200000   -4.178900    0.724463

  3. Atomic kind: Pt                                    Number of atoms:     216

     Orbital Basis Set                      DZVP-A5-Q10-323-MOL-T1-DERIVED_SET-1

       Number of orbital shell sets:                                           1
       Number of orbital shells:                                               6
       Number of primitive Cartesian functions:                                5
       Number of Cartesian basis functions:                                   23
       Number of spherical basis functions:                                   20
       Norm type:                                                              2

       Normalised Cartesian orbitals:

                        Set   Shell   Orbital            Exponent    Coefficient

                          1       1    2s                2.521825       0.177473
                                                         1.453920      -0.063399
                                                         0.614053      -0.407089
                                                         0.232656       0.262254
                                                         0.074788       0.047371

                          1       2    3s                2.521825      -0.049056
                                                         1.453920       0.044904
                                                         0.614053      -0.009756
                                                         0.232656      -0.144709
                                                         0.074788       0.144085

                          1       3    3px               2.521825      -0.317572
                                                         1.453920       0.534826
                                                         0.614053      -0.489458
                                                         0.232656       0.245631
                                                         0.074788       0.018221
                          1       3    3py               2.521825      -0.317572
                                                         1.453920       0.534826
                                                         0.614053      -0.489458
                                                         0.232656       0.245631
                                                         0.074788       0.018221
                          1       3    3pz               2.521825      -0.317572
                                                         1.453920       0.534826
                                                         0.614053      -0.489458
                                                         0.232656       0.245631
                                                         0.074788       0.018221

                          1       4    4dx2              2.521825       3.008522
                                                         1.453920      -1.224251
                                                         0.614053       0.225691
                                                         0.232656       0.125144
                                                         0.074788      -0.015348
                          1       4    4dxy              2.521825       5.210912
                                                         1.453920      -2.120465
                                                         0.614053       0.390909
                                                         0.232656       0.216756
                                                         0.074788      -0.026584
                          1       4    4dxz              2.521825       5.210912
                                                         1.453920      -2.120465
                                                         0.614053       0.390909
                                                         0.232656       0.216756
                                                         0.074788      -0.026584
                          1       4    4dy2              2.521825       3.008522
                                                         1.453920      -1.224251
                                                         0.614053       0.225691
                                                         0.232656       0.125144
                                                         0.074788      -0.015348
                          1       4    4dyz              2.521825       5.210912
                                                         1.453920      -2.120465
                                                         0.614053       0.390909
                                                         0.232656       0.216756
                                                         0.074788      -0.026584
                          1       4    4dz2              2.521825       3.008522
                                                         1.453920      -1.224251
                                                         0.614053       0.225691
                                                         0.232656       0.125144
                                                         0.074788      -0.015348

                          1       5    5dx2              2.521825       0.698026
                                                         1.453920      -1.511486
                                                         0.614053      -0.335394
                                                         0.232656      -0.025564
                                                         0.074788      -0.002699
                          1       5    5dxy              2.521825       1.209017
                                                         1.453920      -2.617970
                                                         0.614053      -0.580920
                                                         0.232656      -0.044277
                                                         0.074788      -0.004674
                          1       5    5dxz              2.521825       1.209017
                                                         1.453920      -2.617970
                                                         0.614053      -0.580920
                                                         0.232656      -0.044277
                                                         0.074788      -0.004674
                          1       5    5dy2              2.521825       0.698026
                                                         1.453920      -1.511486
                                                         0.614053      -0.335394
                                                         0.232656      -0.025564
                                                         0.074788      -0.002699
                          1       5    5dyz              2.521825       1.209017
                                                         1.453920      -2.617970
                                                         0.614053      -0.580920
                                                         0.232656      -0.044277
                                                         0.074788      -0.004674
                          1       5    5dz2              2.521825       0.698026
                                                         1.453920      -1.511486
                                                         0.614053      -0.335394
                                                         0.232656      -0.025564
                                                         0.074788      -0.002699

                          1       6    6dx2              2.521825       0.831079
                                                         1.453920      -0.709226
                                                         0.614053      -0.137351
                                                         0.232656       0.068642
                                                         0.074788       0.011745
                          1       6    6dxy              2.521825       1.439472
                                                         1.453920      -1.228415
                                                         0.614053      -0.237899
                                                         0.232656       0.118891
                                                         0.074788       0.020343
                          1       6    6dxz              2.521825       1.439472
                                                         1.453920      -1.228415
                                                         0.614053      -0.237899
                                                         0.232656       0.118891
                                                         0.074788       0.020343
                          1       6    6dy2              2.521825       0.831079
                                                         1.453920      -0.709226
                                                         0.614053      -0.137351
                                                         0.232656       0.068642
                                                         0.074788       0.011745
                          1       6    6dyz              2.521825       1.439472
                                                         1.453920      -1.228415
                                                         0.614053      -0.237899
                                                         0.232656       0.118891
                                                         0.074788       0.020343
                          1       6    6dz2              2.521825       0.831079
                                                         1.453920      -0.709226
                                                         0.614053      -0.137351
                                                         0.232656       0.068642
                                                         0.074788       0.011745

       Atomic covalent radius [Angstrom]:                                  1.300

       Atomic van der Waals radius [Angstrom]:                             1.750

     GTH Potential information for                                   GTH-PBE-q10

       Description:                       Goedecker-Teter-Hutter pseudopotential
                                           Goedecker et al., PRB 54, 1703 (1996)
                                          Hartwigsen et al., PRB 58, 3641 (1998)
                                                      Krack, TCA 114, 145 (2005)

       Gaussian exponent of the core charge distribution:               1.317676
       Electronic configuration (s p d ...):                           1   0   9

       Parameters of the local part of the GTH pseudopotential:

                          rloc        C1          C2          C3          C4
                        0.616000   11.313635

       Parameters of the non-local part of the GTH pseudopotential:

                   l      r(l)      h(i,j,l)

                   0    0.550904    4.733491   -1.784594
                                   -1.784594    2.303901
                   1    0.674138    2.534798   -1.778066
                                   -1.778066    2.103836
                   2    0.457392   -7.264011    2.558665
                                    2.558665   -2.901253


 MOLECULE KIND INFORMATION


 All atoms are their own molecule, skipping detailed information


 TOTAL NUMBERS AND MAXIMUM NUMBERS

  Total number of            - Atomic kinds:                                   3
                             - Atoms:                                        525
                             - Shell sets:                                   525
                             - Shells:                                      2429
                             - Primitive Cartesian functions:               2625
                             - Cartesian basis functions:                   7440
                             - Spherical basis functions:                   6689

  Maximum angular momentum of- Orbital basis functions:                        2
                             - Local part of the GTH pseudopotential:          2
                             - Non-local part of the GTH pseudopotential:      4


 MODULE QUICKSTEP:  ATOMIC COORDINATES IN angstrom

 Atom  Kind  Element       X           Y           Z          Z(eff)       Mass
    1   1 O    8       7.130001   -3.130000   29.237997       6.0000     15.9994
    2   2 H    1       6.130000   -3.370000   29.377998       1.0000      1.0079
    3   2 H    1       7.120000   -2.180000   29.677998       1.0000      1.0079
    4   1 O    8       6.980000    4.660000   35.747998       6.0000     15.9994
    5   2 H    1       6.970000    3.770000   36.237998       1.0000      1.0079
    6   2 H    1       6.410000    4.510000   35.057998       1.0000      1.0079
    7   1 O    8     -12.340001  -29.090002   30.327998       6.0000     15.9994
    8   2 H    1     -12.920000  -29.840002   30.127998       1.0000      1.0079
    9   2 H    1     -11.450001  -29.430000   30.207998       1.0000      1.0079
   10   1 O    8      16.350000    0.990000   35.817997       6.0000     15.9994
   11   2 H    1      16.170002    1.000000   36.767997       1.0000      1.0079
   12   2 H    1      16.860001    1.880000   35.717998       1.0000      1.0079
   13   1 O    8       9.900001   31.070002   37.357997       6.0000     15.9994
   14   2 H    1      10.880001   31.250002   37.337999       1.0000      1.0079
   15   2 H    1       9.680000   30.389999   38.077998       1.0000      1.0079
   16   1 O    8       8.570001   30.470001   29.727998       6.0000     15.9994
   17   2 H    1       8.310000   31.120003   29.067998       1.0000      1.0079
   18   2 H    1      17.830002   15.520000   29.407997       1.0000      1.0079
   19   1 O    8      16.040001    4.770000   36.767997       6.0000     15.9994
   20   2 H    1      16.910002    4.400000   36.807998       1.0000      1.0079
   21   2 H    1      15.990001    5.400000   37.497999       1.0000      1.0079
   22   1 O    8     -14.030001  -43.349998   30.507998       6.0000     15.9994
   23   2 H    1     -13.650000  -42.580002   30.017997       1.0000      1.0079
   24   2 H    1     -13.240002  -43.930000   30.477997       1.0000      1.0079
   25   1 O    8      35.500000   25.130001   32.427997       6.0000     15.9994
   26   2 H    1      34.970001   25.400002   33.227998       1.0000      1.0079
   27   2 H    1      35.000004   25.260000   31.557997       1.0000      1.0079
   28   1 O    8     -19.730000   11.800001   34.377998       6.0000     15.9994
   29   2 H    1     -19.570002   10.920000   34.147998       1.0000      1.0079
   30   2 H    1     -19.010002   12.220000   34.957998       1.0000      1.0079
   31   1 O    8      19.120001    2.650000   32.357997       6.0000     15.9994
   32   2 H    1      19.600000    1.990000   32.927998       1.0000      1.0079
   33   2 H    1      18.950001    2.170000   31.507997       1.0000      1.0079
   34   1 O    8      28.950003  -29.850002   34.557998       6.0000     15.9994
   35   2 H    1      28.380001  -30.560001   35.157997       1.0000      1.0079
   36   2 H    1      45.180000  -29.290001   34.037998       1.0000      1.0079
   37   1 O    8      -4.310000  -34.680000   39.467998       6.0000     15.9994
   38   2 H    1      -4.740000  -34.889999   38.547998       1.0000      1.0079
   39   2 H    1      -3.830000  -33.800003   39.357997       1.0000      1.0079
   40   1 O    8      19.630001  -19.710001   29.017997       6.0000     15.9994
   41   2 H    1      20.200001  -19.040001   29.557997       1.0000      1.0079
   42   2 H    1      19.930002  -20.610001   29.387997       1.0000      1.0079
   43   1 O    8      10.010000   -3.180000   33.027998       6.0000     15.9994
   44   2 H    1      -7.490000   -2.450000   33.037998       1.0000      1.0079
   45   2 H    1      10.190001   -3.170000   32.017997       1.0000      1.0079
   46   1 O    8      -8.920000    1.060000   35.467998       6.0000     15.9994
   47   2 H    1      -8.170000    1.260000   35.957998       1.0000      1.0079
   48   2 H    1      -8.780001    1.390000   34.587999       1.0000      1.0079
   49   1 O    8      13.720001   60.110001   35.017998       6.0000     15.9994
   50   2 H    1      14.670001   59.970001   35.177997       1.0000      1.0079
   51   2 H    1      13.240002   59.250000   35.117997       1.0000      1.0079
   52   1 O    8     -26.190002  -15.080000   29.767998       6.0000     15.9994
   53   2 H    1     -25.930002  -15.680000   30.537998       1.0000      1.0079
   54   2 H    1     -25.760002  -15.510001   28.997998       1.0000      1.0079
   55   1 O    8       0.700000    9.070001   33.917998       6.0000     15.9994
   56   2 H    1       0.870000    9.890000   33.447997       1.0000      1.0079
   57   2 H    1       0.120000    8.560000   33.287999       1.0000      1.0079
   58   1 O    8      30.690002   14.190001   32.937997       6.0000     15.9994
   59   2 H    1      30.570002   13.220000   33.327998       1.0000      1.0079
   60   2 H    1      13.480000   14.170000   32.057998       1.0000      1.0079
   61   1 O    8      -3.860000   17.090000   28.987997       6.0000     15.9994
   62   2 H    1      -4.560000   17.660000   29.377998       1.0000      1.0079
   63   2 H    1      -3.890000   16.210001   29.557997       1.0000      1.0079
   64   1 O    8      25.980000    7.400000   33.867997       6.0000     15.9994
   65   2 H    1      26.800001    7.580000   33.307998       1.0000      1.0079
   66   2 H    1      25.190001    7.750000   33.377998       1.0000      1.0079
   67   1 O    8     -47.680000    7.350000   32.837998       6.0000     15.9994
   68   2 H    1     -48.230003    6.520000   33.027998       1.0000      1.0079
   69   2 H    1     -48.230003    8.100000   33.117997       1.0000      1.0079
   70   1 O    8      15.630001   18.460001   30.277997       6.0000     15.9994
   71   2 H    1      15.440001   18.120001   29.387997       1.0000      1.0079
   72   2 H    1      15.290001   19.390001   30.327998       1.0000      1.0079
   73   1 O    8       4.700000   -6.570000   34.567997       6.0000     15.9994
   74   2 H    1       4.520000   -6.050000   35.437997       1.0000      1.0079
   75   2 H    1       3.940000   -6.330000   34.007997       1.0000      1.0079
   76   1 O    8     -11.890000  -10.740000   32.937997       6.0000     15.9994
   77   2 H    1     -11.230000  -10.150002   33.357998       1.0000      1.0079
   78   2 H    1     -20.130001    3.020000   33.327998       1.0000      1.0079
   79   1 O    8       1.150000   22.170000   29.307998       6.0000     15.9994
   80   2 H    1       0.210000   22.570002   29.307998       1.0000      1.0079
   81   2 H    1       1.130000   21.350000   29.827998       1.0000      1.0079
   82   1 O    8       4.500000   17.480000   30.067997       6.0000     15.9994
   83   2 H    1       5.350000   17.050001   29.777997       1.0000      1.0079
   84   2 H    1       4.680000   17.870001   30.947997       1.0000      1.0079
   85   1 O    8     -11.520000   31.010000   36.277997       6.0000     15.9994
   86   2 H    1       4.820000   30.890003   35.427998       1.0000      1.0079
   87   2 H    1     -10.580001   30.840000   35.987998       1.0000      1.0079
   88   1 O    8     -26.060001  -13.230000   38.507999       6.0000     15.9994
   89   2 H    1     -25.760002  -12.330000   38.737998       1.0000      1.0079
   90   2 H    1     -25.459999  -13.780001   39.037998       1.0000      1.0079
   91   1 O    8      23.890001  -12.550001   29.177998       6.0000     15.9994
   92   2 H    1      24.160002  -13.520001   29.427997       1.0000      1.0079
   93   2 H    1      24.440001  -11.770000   29.417998       1.0000      1.0079
   94   1 O    8       0.410000   -3.930000   30.077998       6.0000     15.9994
   95   2 H    1       0.640000   -4.070000   29.127998       1.0000      1.0079
   96   2 H    1      -0.540000   -4.260000   30.157997       1.0000      1.0079
   97   1 O    8      40.580002   -7.210000   37.787998       6.0000     15.9994
   98   2 H    1      41.290001   -6.690001   37.317998       1.0000      1.0079
   99   2 H    1      40.960003   -7.110000   38.707998       1.0000      1.0079
  100   1 O    8       6.030001  -26.600000   39.317998       6.0000     15.9994
  101   2 H    1       5.230000  -25.970001   39.497997       1.0000      1.0079
  102   2 H    1       6.080000  -27.050001   40.167999       1.0000      1.0079
  103   1 O    8      15.170001   22.460001   32.617997       6.0000     15.9994
  104   2 H    1      14.720001   21.620003   33.017997       1.0000      1.0079
  105   2 H    1      15.130001   22.350002   31.617997       1.0000      1.0079
  106   1 O    8      17.450001  -17.540001   37.197997       6.0000     15.9994
  107   2 H    1      18.290001  -17.650002   36.587998       1.0000      1.0079
  108   2 H    1      17.120001  -18.450001   37.037998       1.0000      1.0079
  109   1 O    8     -27.500002   49.660000   34.467998       6.0000     15.9994
  110   2 H    1     -27.810001   50.560001   34.757998       1.0000      1.0079
  111   2 H    1     -27.000000   49.240002   35.227998       1.0000      1.0079
  112   1 O    8      13.770000   20.459999   33.717998       6.0000     15.9994
  113   2 H    1      13.550000   19.720001   33.137997       1.0000      1.0079
  114   2 H    1      12.870001   20.860003   33.837998       1.0000      1.0079
  115   1 O    8     -30.920002  -20.990002   37.277997       6.0000     15.9994
  116   2 H    1     -30.320000  -20.910000   36.517998       1.0000      1.0079
  117   2 H    1     -30.940001  -21.990002   37.587997       1.0000      1.0079
  118   1 O    8      15.380001   13.660001   30.367997       6.0000     15.9994
  119   2 H    1      15.830001   13.540001   31.237998       1.0000      1.0079
  120   2 H    1      15.850000   14.350000   29.887997       1.0000      1.0079
  121   1 O    8      17.140001    8.920000   36.557997       6.0000     15.9994
  122   2 H    1       9.590000   23.310001   36.747998       1.0000      1.0079
  123   2 H    1      17.150000    9.020000   35.607998       1.0000      1.0079
  124   1 O    8     -30.800001   -1.980000   30.217997       6.0000     15.9994
  125   2 H    1     -30.270002   -2.770000   30.327998       1.0000      1.0079
  126   2 H    1     -31.700001   -2.290000   30.107997       1.0000      1.0079
  127   1 O    8     -47.730003   23.000002   32.527997       6.0000     15.9994
  128   2 H    1     -47.440002   22.750000   31.647998       1.0000      1.0079
  129   2 H    1     -48.160004   23.860001   32.467998       1.0000      1.0079
  130   1 O    8      10.700001    9.010000   38.447997       6.0000     15.9994
  131   2 H    1      27.940002    8.100000   38.547998       1.0000      1.0079
  132   2 H    1      10.070001    8.750001   37.667999       1.0000      1.0079
  133   1 O    8      11.790000    6.610000   38.617997       6.0000     15.9994
  134   2 H    1       3.650000   20.800001   37.757997       1.0000      1.0079
  135   2 H    1      11.070000    6.060000   39.007999       1.0000      1.0079
  136   1 O    8      -3.460000   -1.040000   30.897997       6.0000     15.9994
  137   2 H    1      -2.560000   -0.940000   30.467998       1.0000      1.0079
  138   2 H    1      -3.220000   -1.260000   31.857998       1.0000      1.0079
  139   1 O    8      30.130003  -18.680000   30.387998       6.0000     15.9994
  140   2 H    1      29.960001  -19.640001   30.197997       1.0000      1.0079
  141   2 H    1      30.360003  -18.770000   31.337998       1.0000      1.0079
  142   1 O    8       4.390000  -18.500002   30.727998       6.0000     15.9994
  143   2 H    1       4.420000  -19.010002   31.577997       1.0000      1.0079
  144   2 H    1       4.320000  -17.470001   30.847997       1.0000      1.0079
  145   1 O    8     -23.380001   30.120001   33.087997       6.0000     15.9994
  146   2 H    1     -23.130001   30.000002   32.127998       1.0000      1.0079
  147   2 H    1     -23.510000   31.120003   33.117997       1.0000      1.0079
  148   1 O    8       6.290000    7.090001   39.627998       6.0000     15.9994
  149   2 H    1       6.300001    7.020000   38.657998       1.0000      1.0079
  150   2 H    1       5.740000    7.890000   39.817998       1.0000      1.0079
  151   1 O    8      27.800003   -3.060000   35.487997       6.0000     15.9994
  152   2 H    1      27.500002   -3.280000   34.537999       1.0000      1.0079
  153   2 H    1      37.180000   11.410000   35.677998       1.0000      1.0079
  154   1 O    8      -6.210001    3.640000   32.897998       6.0000     15.9994
  155   2 H    1      -5.280000    4.040000   32.887998       1.0000      1.0079
  156   2 H    1      -6.580000    4.050000   33.727997       1.0000      1.0079
  157   1 O    8      11.070000   19.050001   29.977997       6.0000     15.9994
  158   2 H    1      -6.770000   18.960001   29.887997       1.0000      1.0079
  159   2 H    1      11.320001   18.610001   30.797998       1.0000      1.0079
  160   1 O    8      -1.240000   13.260001   35.947997       6.0000     15.9994
  161   2 H    1      -0.950000   14.150001   35.627998       1.0000      1.0079
  162   2 H    1      -0.530000   12.690001   36.357997       1.0000      1.0079
  163   1 O    8     -17.300001    7.130001   29.957998       6.0000     15.9994
  164   2 H    1     -17.150000    8.210000   29.937997       1.0000      1.0079
  165   2 H    1     -16.690001    6.930000   29.247998       1.0000      1.0079
  166   1 O    8       6.770000    7.080000   36.847998       6.0000     15.9994
  167   2 H    1       6.020000    7.490000   36.337998       1.0000      1.0079
  168   2 H    1       6.960001    6.150000   36.607997       1.0000      1.0079
  169   1 O    8     -29.840002   19.910000   36.217998       6.0000     15.9994
  170   2 H    1     -29.390001   20.130001   35.357997       1.0000      1.0079
  171   2 H    1     -30.790003   19.840000   35.887998       1.0000      1.0079
  172   1 O    8     -15.150002   12.110001   30.157997       6.0000     15.9994
  173   2 H    1     -14.880000   13.070001   30.347997       1.0000      1.0079
  174   2 H    1     -15.320001   12.190001   29.177998       1.0000      1.0079
  175   1 O    8      -6.720000  -13.320000   29.907997       6.0000     15.9994
  176   2 H    1      -6.740000  -14.230001   30.217997       1.0000      1.0079
  177   2 H    1      -6.280000  -13.360001   29.007997       1.0000      1.0079
  178   1 O    8      33.450005  -10.880001   38.017997       6.0000     15.9994
  179   2 H    1      32.660004  -11.160001   38.557998       1.0000      1.0079
  180   2 H    1      34.120003  -11.610001   37.947997       1.0000      1.0079
  181   1 O    8      25.090000   18.860001   29.977997       6.0000     15.9994
  182   2 H    1      25.180000   18.280001   30.867997       1.0000      1.0079
  183   2 H    1      24.330002   19.410002   30.137998       1.0000      1.0079
  184   1 O    8       4.410000   -0.260000   37.967998       6.0000     15.9994
  185   2 H    1       4.740000    0.660000   37.537998       1.0000      1.0079
  186   2 H    1       5.240001   -0.580000   38.357997       1.0000      1.0079
  187   1 O    8       0.180000    4.050000   39.677997       6.0000     15.9994
  188   2 H    1       0.970000    3.590000   40.027999       1.0000      1.0079
  189   2 H    1      -0.430000    4.170000   40.417999       1.0000      1.0079
  190   1 O    8      13.460001   18.190001   32.197997       6.0000     15.9994
  191   2 H    1      12.810000   17.470001   32.177998       1.0000      1.0079
  192   2 H    1      14.180001   18.100000   31.547998       1.0000      1.0079
  193   1 O    8      -3.160000   59.550003   39.607997       6.0000     15.9994
  194   2 H    1      -2.280000   59.550003   39.197997       1.0000      1.0079
  195   2 H    1      -3.730000   60.140003   38.987998       1.0000      1.0079
  196   1 O    8       8.050001   21.310001   32.807997       6.0000     15.9994
  197   2 H    1       7.830000   21.090002   31.877998       1.0000      1.0079
  198   2 H    1       7.390000   20.940001   33.467997       1.0000      1.0079
  199   1 O    8      -8.920000   17.460001   32.497997       6.0000     15.9994
  200   2 H    1      -8.380001   17.050001   33.177998       1.0000      1.0079
  201   2 H    1      -9.630001   16.830002   32.427997       1.0000      1.0079
  202   1 O    8     -13.090000   30.370003   33.867997       6.0000     15.9994
  203   2 H    1     -12.440001   29.680002   33.467997       1.0000      1.0079
  204   2 H    1     -13.930000   29.910002   34.277998       1.0000      1.0079
  205   1 O    8     -11.850000    9.750000   33.137997       6.0000     15.9994
  206   2 H    1     -11.140001    8.990001   33.017997       1.0000      1.0079
  207   2 H    1     -11.480000   10.670000   33.207998       1.0000      1.0079
  208   1 O    8      20.110001    3.100000   37.207998       6.0000     15.9994
  209   2 H    1      20.040001    3.980000   37.647998       1.0000      1.0079
  210   2 H    1      21.020000    2.940000   36.987998       1.0000      1.0079
  211   1 O    8       2.570000    5.490000   37.977998       6.0000     15.9994
  212   2 H    1       3.160000    5.380001   38.787998       1.0000      1.0079
  213   2 H    1       1.620000    5.420001   38.327998       1.0000      1.0079
  214   1 O    8      13.480000   -3.410000   36.657998       6.0000     15.9994
  215   2 H    1      14.210001   -2.930000   36.187998       1.0000      1.0079
  216   2 H    1      13.740001   -3.250000   37.617997       1.0000      1.0079
  217   1 O    8      18.200001   19.540001   35.047998       6.0000     15.9994
  218   2 H    1      17.320002   19.270000   35.467998       1.0000      1.0079
  219   2 H    1      17.950001   20.380001   34.567997       1.0000      1.0079
  220   1 O    8      24.510002    1.990000   32.757997       6.0000     15.9994
  221   2 H    1      24.990002    2.220000   31.977998       1.0000      1.0079
  222   2 H    1      23.810001    2.660000   32.917998       1.0000      1.0079
  223   1 O    8      -9.840000  -30.410002   38.647998       6.0000     15.9994
  224   2 H    1      -9.360001  -29.530001   38.957998       1.0000      1.0079
  225   2 H    1     -10.020000  -30.430002   37.677999       1.0000      1.0079
  226   1 O    8      -0.190000   13.620001   32.817998       6.0000     15.9994
  227   2 H    1       0.420000   14.410001   32.777997       1.0000      1.0079
  228   2 H    1      -1.040000   14.010000   33.137997       1.0000      1.0079
  229   1 O    8       7.380000  -16.400002   35.187997       6.0000     15.9994
  230   2 H    1       7.580000  -15.490000   35.467998       1.0000      1.0079
  231   2 H    1      25.080002  -16.930000   35.177997       1.0000      1.0079
  232   1 O    8     -13.210001  -21.950001   30.147997       6.0000     15.9994
  233   2 H    1     -13.620001  -22.750000   29.737997       1.0000      1.0079
  234   2 H    1     -13.500000  -21.950001   31.097997       1.0000      1.0079
  235   1 O    8      18.030001   -9.200000   39.827998       6.0000     15.9994
  236   2 H    1      17.610001   -8.450001   40.417999       1.0000      1.0079
  237   2 H    1      17.430000   -9.580001   39.197997       1.0000      1.0079
  238   1 O    8      -4.870000  -16.940001   36.127998       6.0000     15.9994
  239   2 H    1      -4.100000  -17.240002   35.587997       1.0000      1.0079
  240   2 H    1      -4.450000  -16.060001   36.497999       1.0000      1.0079
  241   1 O    8      11.670000   40.770000   38.767997       6.0000     15.9994
  242   2 H    1      11.940001   41.020004   37.867997       1.0000      1.0079
  243   2 H    1      11.170001   39.889999   38.607997       1.0000      1.0079
  244   1 O    8      17.360001   23.170002   36.447998       6.0000     15.9994
  245   2 H    1      17.640001   22.680000   35.617997       1.0000      1.0079
  246   2 H    1      16.490000   22.780001   36.647998       1.0000      1.0079
  247   1 O    8      26.620003   17.500002   35.367997       6.0000     15.9994
  248   2 H    1      18.070000   32.830002   34.717998       1.0000      1.0079
  249   2 H    1      19.090000   32.200005   35.767997       1.0000      1.0079
  250   1 O    8      -6.880000  -15.130001   34.507998       6.0000     15.9994
  251   2 H    1      -6.360001  -15.600000   35.177997       1.0000      1.0079
  252   2 H    1      -7.410001  -14.410001   34.897997       1.0000      1.0079
  253   1 O    8      -3.140000   26.000002   39.207998       6.0000     15.9994
  254   2 H    1      -2.260000   26.020002   39.617999       1.0000      1.0079
  255   2 H    1      -3.630000   26.780003   39.627998       1.0000      1.0079
  256   1 O    8       4.030000   -6.920000   30.117997       6.0000     15.9994
  257   2 H    1       4.500000   -7.790000   30.077998       1.0000      1.0079
  258   2 H    1       3.520000   -7.020000   29.287998       1.0000      1.0079
  259   1 O    8     -25.090000   24.100000   30.047998       6.0000     15.9994
  260   2 H    1     -25.600002   24.850002   29.637998       1.0000      1.0079
  261   2 H    1     -24.209999   24.220001   29.657997       1.0000      1.0079
  262   1 O    8       1.680000    5.030000   33.447997       6.0000     15.9994
  263   2 H    1       2.040000    4.190001   33.177998       1.0000      1.0079
  264   2 H    1       0.840000    5.250000   33.037998       1.0000      1.0079
  265   1 O    8      25.190001   12.990000   32.167997       6.0000     15.9994
  266   2 H    1      25.630001   12.100000   32.017997       1.0000      1.0079
  267   2 H    1      25.640001   13.400001   33.017997       1.0000      1.0079
  268   1 O    8     -15.530001   12.580000   39.627998       6.0000     15.9994
  269   2 H    1     -14.520000   12.730000   39.607997       1.0000      1.0079
  270   2 H    1     -15.710001   12.090001   38.767997       1.0000      1.0079
  271   1 O    8     -10.460000    6.370000   30.167998       6.0000     15.9994
  272   2 H    1     -11.400002    6.590000   29.977997       1.0000      1.0079
  273   2 H    1     -10.100000    6.380000   29.217998       1.0000      1.0079
  274   1 O    8     -24.420002   10.780001   34.947997       6.0000     15.9994
  275   2 H    1     -23.560001   11.090001   35.387998       1.0000      1.0079
  276   2 H    1     -24.660000    9.990001   35.527998       1.0000      1.0079
  277   1 O    8       5.810000   -8.950001   29.887997       6.0000     15.9994
  278   2 H    1       6.460000   -8.200001   29.697997       1.0000      1.0079
  279   2 H    1       5.730000   -9.280001   28.947997       1.0000      1.0079
  280   1 O    8      14.310001    9.760000   32.807997       6.0000     15.9994
  281   2 H    1      15.030001    9.340000   32.347997       1.0000      1.0079
  282   2 H    1      13.890000    9.030001   33.387998       1.0000      1.0079
  283   1 O    8       8.860001    0.530000   39.317998       6.0000     15.9994
  284   2 H    1       8.760000    0.730000   40.297998       1.0000      1.0079
  285   2 H    1       9.190001   -0.420000   39.197997       1.0000      1.0079
  286   1 O    8      -5.960000   16.750000   39.767999       6.0000     15.9994
  287   2 H    1      -5.560000   16.990002   38.927999       1.0000      1.0079
  288   2 H    1      -5.450000   16.980001   40.567998       1.0000      1.0079
  289   1 O    8      13.880000   -2.120000   33.407998       6.0000     15.9994
  290   2 H    1      14.760000   -1.860000   33.767998       1.0000      1.0079
  291   2 H    1      13.170000   -1.490000   33.777997       1.0000      1.0079
  292   1 O    8     -12.070000   23.600002   37.067996       6.0000     15.9994
  293   2 H    1       4.120000   23.600002   37.757997       1.0000      1.0079
  294   2 H    1       5.480001   23.000002   37.487998       1.0000      1.0079
  295   1 O    8      46.410004    2.750000   37.337999       6.0000     15.9994
  296   2 H    1      46.950001    2.290000   36.667998       1.0000      1.0079
  297   2 H    1      46.320004    3.710000   36.927998       1.0000      1.0079
  298   1 O    8      13.210001   23.290001   35.627998       6.0000     15.9994
  299   2 H    1      13.100000   23.610001   34.697997       1.0000      1.0079
  300   2 H    1      13.450001   24.090002   36.137998       1.0000      1.0079
  301   1 O    8     -18.740002  -34.330002   29.887997       6.0000     15.9994
  302   2 H    1     -19.600000  -33.720001   29.967998       1.0000      1.0079
  303   2 H    1     -18.660000  -34.750000   28.987997       1.0000      1.0079
  304   1 O    8      -7.230001   34.260002   30.677997       6.0000     15.9994
  305   2 H    1      -6.820001   33.790001   31.417998       1.0000      1.0079
  306   2 H    1      -7.970000   33.650002   30.397997       1.0000      1.0079
  307   1 O    8     -30.580002   -9.780001   29.147997       6.0000     15.9994
  308   2 H    1     -30.090000  -10.640000   29.437998       1.0000      1.0079
  309   2 H    1     -14.530001   -9.750000   29.727998       1.0000      1.0079
  310   3 Pt  78       1.480000    0.900000   15.079998      10.0000    195.0840
  311   3 Pt  78       4.360000    0.940000   15.179996      10.0000    195.0840
  312   3 Pt  78       7.240000    0.630000   15.279999      10.0000    195.0840
  313   3 Pt  78      10.030001    0.730000   15.410000      10.0000    195.0840
  314   3 Pt  78      12.820001    0.970000   15.099998      10.0000    195.0840
  315   3 Pt  78      15.590000    0.880000   15.239998      10.0000    195.0840
  316   3 Pt  78       2.910000    3.320000   15.029999      10.0000    195.0840
  317   3 Pt  78       5.870000    3.290000   15.290001      10.0000    195.0840
  318   3 Pt  78       8.550000    3.190000   15.200001      10.0000    195.0840
  319   3 Pt  78      11.310000    3.280000   15.369999      10.0000    195.0840
  320   3 Pt  78      14.220000    3.340000   15.299999      10.0000    195.0840
  321   3 Pt  78       0.140000    3.210000   15.249996      10.0000    195.0840
  322   3 Pt  78       4.410000    5.640000   15.029999      10.0000    195.0840
  323   3 Pt  78       7.170000    5.640000   15.270000      10.0000    195.0840
  324   3 Pt  78       9.870001    5.620000   15.259998      10.0000    195.0840
  325   3 Pt  78      12.750001    5.710001   15.000000      10.0000    195.0840
  326   3 Pt  78      -1.190000    5.660000   15.230000      10.0000    195.0840
  327   3 Pt  78       1.660000    5.600000   15.000000      10.0000    195.0840
  328   3 Pt  78       5.770000    8.120001   15.079998      10.0000    195.0840
  329   3 Pt  78       8.550000    8.110001   15.189999      10.0000    195.0840
  330   3 Pt  78      11.270000    8.010000   15.060001      10.0000    195.0840
  331   3 Pt  78      -2.590000    8.070001   15.109997      10.0000    195.0840
  332   3 Pt  78       0.140000    8.100000   15.029999      10.0000    195.0840
  333   3 Pt  78       2.920000    8.060000   15.049999      10.0000    195.0840
  334   3 Pt  78       6.990001   10.640000   15.319996      10.0000    195.0840
  335   3 Pt  78      10.010000   10.450001   15.179996      10.0000    195.0840
  336   3 Pt  78      -4.100000   10.310000   15.060001      10.0000    195.0840
  337   3 Pt  78      -1.320000   10.530001   15.119999      10.0000    195.0840
  338   3 Pt  78       1.450000   10.460000   15.130001      10.0000    195.0840
  339   3 Pt  78       4.210001   10.570001   15.179996      10.0000    195.0840
  340   3 Pt  78       8.460000   13.080001   15.290001      10.0000    195.0840
  341   3 Pt  78      -5.590000   13.100000   15.179996      10.0000    195.0840
  342   3 Pt  78      -2.800000   12.970000   15.200001      10.0000    195.0840
  343   3 Pt  78       0.160000   12.900001   15.309998      10.0000    195.0840
  344   3 Pt  78       2.860000   12.930001   15.079998      10.0000    195.0840
  345   3 Pt  78       5.750000   12.960000   15.070000      10.0000    195.0840
  346   3 Pt  78       0.310000    1.490000   17.480000      10.0000    195.0840
  347   3 Pt  78       3.060000    1.600000   17.519997      10.0000    195.0840
  348   3 Pt  78       5.840001    1.290000   17.509998      10.0000    195.0840
  349   3 Pt  78       8.610001    1.370000   17.539997      10.0000    195.0840
  350   3 Pt  78      11.530000    1.580000   17.599998      10.0000    195.0840
  351   3 Pt  78      14.350000    1.550000   17.539997      10.0000    195.0840
  352   3 Pt  78       1.700000    4.140000   17.449997      10.0000    195.0840
  353   3 Pt  78       4.380000    4.050000   17.529999      10.0000    195.0840
  354   3 Pt  78       7.110000    3.860000   17.669998      10.0000    195.0840
  355   3 Pt  78       9.960001    3.990000   17.649998      10.0000    195.0840
  356   3 Pt  78      12.830001    3.940000   17.589996      10.0000    195.0840
  357   3 Pt  78      -1.150000    4.050000   17.649998      10.0000    195.0840
  358   3 Pt  78       3.060000    6.540000   17.410000      10.0000    195.0840
  359   3 Pt  78       5.830000    6.410000   17.489998      10.0000    195.0840
  360   3 Pt  78       8.580000    6.390000   17.579998      10.0000    195.0840
  361   3 Pt  78      11.440001    6.390000   17.500000      10.0000    195.0840
  362   3 Pt  78      -2.610000    6.340000   17.459999      10.0000    195.0840
  363   3 Pt  78       0.290000    6.510000   17.519997      10.0000    195.0840
  364   3 Pt  78       4.480000    8.860001   17.449997      10.0000    195.0840
  365   3 Pt  78       7.170000    8.910000   17.509998      10.0000    195.0840
  366   3 Pt  78      10.090000    8.820001   17.430000      10.0000    195.0840
  367   3 Pt  78      -4.040000    8.740000   17.469997      10.0000    195.0840
  368   3 Pt  78      -1.200000    8.840000   17.570000      10.0000    195.0840
  369   3 Pt  78       1.680000    8.880001   17.539997      10.0000    195.0840
  370   3 Pt  78       5.800000   11.410000   17.669998      10.0000    195.0840
  371   3 Pt  78       8.670000   11.300000   17.519997      10.0000    195.0840
  372   3 Pt  78      -5.390000   11.280001   17.500000      10.0000    195.0840
  373   3 Pt  78      -2.650000   11.210001   17.500000      10.0000    195.0840
  374   3 Pt  78       0.220000   11.240001   17.619999      10.0000    195.0840
  375   3 Pt  78       3.080000   11.310000   17.449997      10.0000    195.0840
  376   3 Pt  78       7.270000   13.730000   17.570000      10.0000    195.0840
  377   3 Pt  78      -6.780000   13.730000   17.480000      10.0000    195.0840
  378   3 Pt  78      -3.990000   13.620001   17.500000      10.0000    195.0840
  379   3 Pt  78      -1.220000   13.550000   17.630001      10.0000    195.0840
  380   3 Pt  78       1.760000   13.610001   17.619999      10.0000    195.0840
  381   3 Pt  78       4.570000   13.850001   17.399998      10.0000    195.0840
  382   3 Pt  78      -8.240001   14.540001   19.810001      10.0000    195.0840
  383   3 Pt  78      -5.440001   14.560001   19.789997      10.0000    195.0840
  384   3 Pt  78      -2.560000   14.430000   19.829998      10.0000    195.0840
  385   3 Pt  78       0.140000   14.370001   19.919998      10.0000    195.0840
  386   3 Pt  78       2.980000   14.470000   19.919998      10.0000    195.0840
  387   3 Pt  78       5.740000   14.570000   19.959999      10.0000    195.0840
  388   3 Pt  78       1.600000    2.440000   19.810001      10.0000    195.0840
  389   3 Pt  78       4.450000    2.390000   19.880001      10.0000    195.0840
  390   3 Pt  78       7.210000    2.340000   19.950001      10.0000    195.0840
  391   3 Pt  78       9.990001    2.160000   19.899998      10.0000    195.0840
  392   3 Pt  78      12.850000    2.280000   19.950001      10.0000    195.0840
  393   3 Pt  78      -1.170000    2.340000   19.969997      10.0000    195.0840
  394   3 Pt  78       3.060000    4.830000   19.820000      10.0000    195.0840
  395   3 Pt  78       5.840001    4.790000   19.840000      10.0000    195.0840
  396   3 Pt  78       8.750001    4.710000   19.980000      10.0000    195.0840
  397   3 Pt  78      11.380000    4.720000   19.919998      10.0000    195.0840
  398   3 Pt  78      -2.700000    4.730000   19.859997      10.0000    195.0840
  399   3 Pt  78       0.280000    4.790000   19.869999      10.0000    195.0840
  400   3 Pt  78       4.390000    7.310000   19.849998      10.0000    195.0840
  401   3 Pt  78       7.230001    7.150001   19.840000      10.0000    195.0840
  402   3 Pt  78       9.970000    7.260000   19.789997      10.0000    195.0840
  403   3 Pt  78      -4.100000    7.150001   19.859997      10.0000    195.0840
  404   3 Pt  78      -1.190000    7.180000   19.959999      10.0000    195.0840
  405   3 Pt  78       1.600000    7.190001   19.759998      10.0000    195.0840
  406   3 Pt  78       5.810000    9.640000   19.919998      10.0000    195.0840
  407   3 Pt  78       8.640000    9.640000   19.739998      10.0000    195.0840
  408   3 Pt  78      -5.380001    9.680000   19.750000      10.0000    195.0840
  409   3 Pt  78      -2.590000    9.570000   19.789997      10.0000    195.0840
  410   3 Pt  78       0.350000    9.600000   19.950001      10.0000    195.0840
  411   3 Pt  78       3.020000    9.680000   19.910000      10.0000    195.0840
  412   3 Pt  78       7.180000   12.160001   19.880001      10.0000    195.0840
  413   3 Pt  78      -6.920000   12.130001   19.750000      10.0000    195.0840
  414   3 Pt  78      -4.040000   12.080001   19.869999      10.0000    195.0840
  415   3 Pt  78      -1.190000   11.970000   19.919998      10.0000    195.0840
  416   3 Pt  78       1.560000   12.070000   19.989998      10.0000    195.0840
  417   3 Pt  78       4.340000   12.200001   19.880001      10.0000    195.0840
  418   3 Pt  78       1.600000    0.730000   22.007997      10.0000    195.0840
  419   3 Pt  78       4.440001    0.610000   22.057997      10.0000    195.0840
  420   3 Pt  78       7.230001    0.690000   22.197997      10.0000    195.0840
  421   3 Pt  78      10.010000    0.710000   22.307997      10.0000    195.0840
  422   3 Pt  78      12.830001    0.670000   22.317997      10.0000    195.0840
  423   3 Pt  78      15.560001    0.720000   22.247997      10.0000    195.0840
  424   3 Pt  78       2.970000    3.050000   22.167997      10.0000    195.0840
  425   3 Pt  78       5.720000    3.140000   22.197997      10.0000    195.0840
  426   3 Pt  78       8.540000    3.190000   22.217997      10.0000    195.0840
  427   3 Pt  78      11.350001    3.160000   22.177997      10.0000    195.0840
  428   3 Pt  78      14.170000    3.110000   22.277997      10.0000    195.0840
  429   3 Pt  78       0.160000    3.100000   22.267997      10.0000    195.0840
  430   3 Pt  78       4.370000    5.590000   22.217997      10.0000    195.0840
  431   3 Pt  78       7.220001    5.680000   22.167997      10.0000    195.0840
  432   3 Pt  78       9.950001    5.610001   22.237997      10.0000    195.0840
  433   3 Pt  78      12.730000    5.520000   22.187997      10.0000    195.0840
  434   3 Pt  78      -1.220000    5.560000   22.167997      10.0000    195.0840
  435   3 Pt  78       1.610000    5.490000   22.137997      10.0000    195.0840
  436   3 Pt  78       5.830000    8.020000   22.177997      10.0000    195.0840
  437   3 Pt  78       8.640000    8.060000   22.157997      10.0000    195.0840
  438   3 Pt  78      11.380000    8.020000   22.107997      10.0000    195.0840
  439   3 Pt  78      -2.690000    7.970000   22.157997      10.0000    195.0840
  440   3 Pt  78       0.170000    7.950000   22.257997      10.0000    195.0840
  441   3 Pt  78       2.960000    8.030001   22.227997      10.0000    195.0840
  442   3 Pt  78       7.150001   10.480001   22.127997      10.0000    195.0840
  443   3 Pt  78      10.030001   10.400001   22.007997      10.0000    195.0840
  444   3 Pt  78      -3.950000   10.380001   22.127997      10.0000    195.0840
  445   3 Pt  78      -1.250000   10.340000   22.247997      10.0000    195.0840
  446   3 Pt  78       1.480000   10.480001   22.317997      10.0000    195.0840
  447   3 Pt  78       4.340000   10.430001   22.197997      10.0000    195.0840
  448   3 Pt  78       8.580000   12.920000   22.157997      10.0000    195.0840
  449   3 Pt  78      -5.520000   12.820001   21.947997      10.0000    195.0840
  450   3 Pt  78      -2.660000   12.790001   22.197997      10.0000    195.0840
  451   3 Pt  78       0.050000   12.800001   22.327997      10.0000    195.0840
  452   3 Pt  78       2.820000   12.980001   22.357997      10.0000    195.0840
  453   3 Pt  78       5.730000   12.910000   22.247997      10.0000    195.0840
  454   3 Pt  78       0.150000    1.400000   24.417997      10.0000    195.0840
  455   3 Pt  78       3.000000    1.400000   24.267997      10.0000    195.0840
  456   3 Pt  78       5.680000    1.480000   24.457997      10.0000    195.0840
  457   3 Pt  78       8.460000    1.500000   24.567997      10.0000    195.0840
  458   3 Pt  78      11.330000    1.500000   24.487997      10.0000    195.0840
  459   3 Pt  78      14.230001    1.510000   24.627997      10.0000    195.0840
  460   3 Pt  78       1.600000    3.970000   24.507997      10.0000    195.0840
  461   3 Pt  78       4.320000    4.000000   24.467997      10.0000    195.0840
  462   3 Pt  78       7.160000    4.010000   24.507997      10.0000    195.0840
  463   3 Pt  78      10.010000    3.970000   24.527997      10.0000    195.0840
  464   3 Pt  78      12.670001    3.860000   24.547997      10.0000    195.0840
  465   3 Pt  78      -1.330000    4.010000   24.587997      10.0000    195.0840
  466   3 Pt  78       2.810000    6.400001   24.387997      10.0000    195.0840
  467   3 Pt  78       5.800000    6.470000   24.397997      10.0000    195.0840
  468   3 Pt  78       8.580000    6.480000   24.517997      10.0000    195.0840
  469   3 Pt  78      11.380000    6.380000   24.557997      10.0000    195.0840
  470   3 Pt  78      -2.720000    6.360001   24.427997      10.0000    195.0840
  471   3 Pt  78       0.140000    6.320000   24.647997      10.0000    195.0840
  472   3 Pt  78       4.310000    8.830000   24.517997      10.0000    195.0840
  473   3 Pt  78       7.170000    8.860001   24.507997      10.0000    195.0840
  474   3 Pt  78       9.930000    8.820001   24.507997      10.0000    195.0840
  475   3 Pt  78      -4.210001    8.800000   24.427997      10.0000    195.0840
  476   3 Pt  78      -1.430000    8.850000   24.487997      10.0000    195.0840
  477   3 Pt  78       1.530000    8.900001   24.547997      10.0000    195.0840
  478   3 Pt  78       5.660000   11.270000   24.427997      10.0000    195.0840
  479   3 Pt  78       8.510000   11.240001   24.477997      10.0000    195.0840
  480   3 Pt  78      -5.570001   11.240001   24.317997      10.0000    195.0840
  481   3 Pt  78      -2.780000   11.130000   24.657997      10.0000    195.0840
  482   3 Pt  78      -0.010000   11.180000   24.597997      10.0000    195.0840
  483   3 Pt  78       2.940000   11.380000   24.517997      10.0000    195.0840
  484   3 Pt  78       7.140000   13.700001   24.457997      10.0000    195.0840
  485   3 Pt  78      -6.870000   13.620001   24.297997      10.0000    195.0840
  486   3 Pt  78      -4.110000   13.560000   24.467997      10.0000    195.0840
  487   3 Pt  78      -1.450000   13.510000   24.617997      10.0000    195.0840
  488   3 Pt  78       1.420000   13.730000   24.637997      10.0000    195.0840
  489   3 Pt  78       4.200000   13.700001   24.697997      10.0000    195.0840
  490   3 Pt  78      -8.440001   14.570000   26.667997      10.0000    195.0840
  491   3 Pt  78      -5.590000   14.550000   26.707997      10.0000    195.0840
  492   3 Pt  78      -2.850000   14.490002   26.847997      10.0000    195.0840
  493   3 Pt  78      -0.100000   14.450001   27.067997      10.0000    195.0840
  494   3 Pt  78       2.740000   14.430000   26.937997      10.0000    195.0840
  495   3 Pt  78       5.650000   14.470000   26.947997      10.0000    195.0840
  496   3 Pt  78       1.460000    2.340000   26.747997      10.0000    195.0840
  497   3 Pt  78       4.270000    2.340000   26.837997      10.0000    195.0840
  498   3 Pt  78       7.060000    2.330000   26.827998      10.0000    195.0840
  499   3 Pt  78       9.800000    2.390000   26.837997      10.0000    195.0840
  500   3 Pt  78      12.540001    2.190000   26.917998      10.0000    195.0840
  501   3 Pt  78      -1.460000    2.380000   26.967997      10.0000    195.0840
  502   3 Pt  78       2.920000    4.810000   26.787998      10.0000    195.0840
  503   3 Pt  78       5.650000    4.740000   26.747997      10.0000    195.0840
  504   3 Pt  78       8.510000    4.800000   26.827998      10.0000    195.0840
  505   3 Pt  78      11.350001    4.740000   26.887997      10.0000    195.0840
[...]
 flops    13 x    13 x    96           4517702592       0.0%    100.0%      0.0%
 flops    13 x    13 x   104           4894177808       0.0%    100.0%      0.0%
 flops    13 x    32 x     5           5368862720       0.0%    100.0%      0.0%
 flops     5 x    32 x    13           5368862720       0.0%    100.0%      0.0%
 flops    20 x    13 x    96           6177250560       0.0%    100.0%      0.0%
 flops    13 x    20 x    96           6191727360       0.0%    100.0%      0.0%
 flops    13 x    32 x    13           6369953408       0.0%    100.0%      0.0%
 flops    20 x     5 x    96           6656544000       0.0%    100.0%      0.0%
 flops     5 x    20 x    96           6657657600       0.0%    100.0%      0.0%
 flops    20 x    13 x   104           6692021440       0.0%    100.0%      0.0%
 flops    13 x    20 x   104           6707704640       0.0%    100.0%      0.0%
 flops    20 x     5 x   104           7211256000       0.0%    100.0%      0.0%
 flops     5 x    20 x   104           7212462400       0.0%    100.0%      0.0%
 flops    13 x    32 x    20           8814673920       0.0%    100.0%      0.0%
 flops    20 x    32 x    13           8814673920       0.0%    100.0%      0.0%
 flops    20 x    32 x     5           9488281600       0.0%    100.0%      0.0%
 flops     5 x    32 x    20           9488281600       0.0%    100.0%      0.0%
 flops    20 x    20 x    96          52196659200       0.0%    100.0%      0.0%
 flops     5 x     5 x   128          55377100800       0.0%    100.0%      0.0%
 flops    20 x    20 x   104          56546380800       0.0%    100.0%      0.0%
 flops    13 x     5 x   128          70314782720       0.0%    100.0%      0.0%
 flops     5 x    13 x   128          70314782720       0.0%    100.0%      0.0%
 flops    20 x    32 x    20          74052403200       0.0%    100.0%      0.0%
 flops    13 x    13 x   128          84330448384       0.0%    100.0%      0.0%
 flops    20 x    13 x   128         115308677120       0.0%    100.0%      0.0%
 flops    13 x    20 x   128         115578910720       0.0%    100.0%      0.0%
 flops    20 x     5 x   128         124255488000       0.0%    100.0%      0.0%
 flops     5 x    20 x   128         124276275200       0.0%    100.0%      0.0%
 flops    20 x    20 x   128         974337638400       0.0%    100.0%      0.0%
 flops inhomo. stacks                           0       0.0%      0.0%      0.0%
 flops total                         2.060137E+12       0.0%    100.0%      0.0%
 flops max/rank                     18.017160E+09       0.0%    100.0%      0.0%
 matmuls inhomo. stacks                         0       0.0%      0.0%      0.0%
 matmuls total                           60631315       0.0%    100.0%      0.0%
 number of processed stacks                556658       0.0%    100.0%      0.0%
 average stack size                                     0.0     108.9       0.0
 marketing flops                     4.207339E+12
 -------------------------------------------------------------------------------
 # multiplications                             30
 max memory usage/rank               1.578177E+09
 # max total images/rank                        2
 # max 3D layers                                1
 # MPI messages exchanged                  111360
 MPI messages size (bytes):
  total size                        72.745501E+09
  min size                         276.480000E+03
  max size                           2.312168E+06
  average size                     653.246250E+03
 MPI breakdown and total messages size (bytes):
             size <=      128                   0                        0
       128 < size <=     8192                   0                        0
      8192 < size <=    32768                   0                        0
     32768 < size <=   131072                   0                        0
    131072 < size <=  4194304              111360              72745503000
   4194304 < size <= 16777216                   0                        0
  16777216 < size                               0                        0
 -------------------------------------------------------------------------------

 *** WARNING in dbcsr_mm.F:290 :: Using a non-square number of MPI ranks ***
 *** might lead to poor performance. Used ranks: 128 Suggested: 121 256  ***

 -------------------------------------------------------------------------------
 -                                                                             -
 -                      DBCSR MESSAGE PASSING PERFORMANCE                      -
 -                                                                             -
 -------------------------------------------------------------------------------
 ROUTINE             CALLS      AVE VOLUME [Bytes]
 MP_Bcast               46                     12.
 MP_Allreduce          313                     14.
 MP_Alltoall           833                 596622.
 MP_ISend             1920                 309158.
 MP_IRecv             1920                 303101.
 -------------------------------------------------------------------------------

 -------------------------------------------------------------------------------
 -                                                                             -
 -                                DBM STATISTICS                               -
 -                                                                             -
 -------------------------------------------------------------------------------
    M  x    N  x    K                                          COUNT     PERCENT
 -------------------------------------------------------------------------------

 -------------------------------------------------------------------------------
 -                                                                             -
 -                                GRID STATISTICS                              -
 -                                                                             -
 -------------------------------------------------------------------------------
 LP    KERNEL             BACKEND                              COUNT     PERCENT
 4     collocate general  REF                               11420024      21.49%
 4     integrate general  REF                               11308762      21.28%
 3     collocate general  REF                                8304688      15.63%
 3     integrate general  REF                                8247801      15.52%
 2     collocate general  REF                                6711852      12.63%
 2     integrate general  REF                                6472143      12.18%
 5     integrate general  REF                                 407858       0.77%
 0     collocate general  REF                                 134400       0.25%
 0     integrate general  REF                                  67200       0.13%
 1     integrate general  REF                                  67200       0.13%
 -------------------------------------------------------------------------------

 MEMORY| Estimated peak process memory [MiB]                                1800

 -------------------------------------------------------------------------------
 ----                             MULTIGRID INFO                            ----
 -------------------------------------------------------------------------------
 count for grid        1:        1101759          cutoff [a.u.]          200.00
 count for grid        2:        1097048          cutoff [a.u.]           66.67
 count for grid        3:         725003          cutoff [a.u.]           22.22
 count for grid        4:         565694          cutoff [a.u.]            7.41
 total gridlevel count  :        3489504

 -------------------------------------------------------------------------------
 -                                                                             -
 -                         MESSAGE PASSING PERFORMANCE                         -
 -                                                                             -
 -------------------------------------------------------------------------------

 ROUTINE             CALLS      AVE VOLUME [Bytes]
 MP_Group                4
 MP_Bcast             2188                 309559.
 MP_Allreduce         3161                  34865.
 MP_Sync                62
 MP_Alltoall          1702               16742672.
 MP_SendRecv           508                   6141.
 MP_ISendRecv        14224                  61740.
 MP_Wait             25372
 MP_comm_split          29
 MP_ISend            10512                 256328.
 MP_IRecv            10512                 256328.
 MP_Recv               124                1712384.
 MP_Write_All            3                1797408.
 -------------------------------------------------------------------------------


 -------------------------------------------------------------------------------
 -                                                                             -
 -                           R E F E R E N C E S                               -
 -                                                                             -
 -------------------------------------------------------------------------------
 
 CP2K version 2022.1, the CP2K developers group (2022).
 CP2K is freely available from https://www.cp2k.org/ .

 Kuehne,Thomas D.; Iannuzzi,Marcella; Del Ben,Mauro;
 Rybkin,Vladimir V.; Seewald,Patrick; Stein,Frederick; Laino,Teodoro;
 Khaliullin,Rustam Z.; Schuett,Ole; Schiffmann,Florian; Golze,Dorothea;
 Wilhelm,Jan; Chulkov,Sergey; Bani-Hashemian,Mohammad Hossein;
 Weber,Valery; Borstnik,Urban; Taillefumier,Mathieu;
 Jakobovits,Alice Shoshana; Lazzaro,Alfio; Pabst,Hans; Mueller,Tiziano;
 Schade,Robert; Guidon,Manuel; Andermatt,Samuel; Holmberg,Nico;
 Schenter,Gregory K.; Hehn,Anna; Bussy,Augustin; Belleflamme,Fabian;
 Tabacchi,Gloria; Gloess,Andreas; Lass,Michael; Bethune,Iain;
 Mundy,Christopher J.; Plessl,Christian; Watkins,Matt;
 VandeVondele,Joost; Krack,Matthias; Hutter,Juerg. 
 The Journal of Chemical Physics, 152 (19), (2020). 
 CP2K: An electronic structure and molecular dynamics software package -
 Quickstep: Efficient and accurate electronic structure calculations.
 https://doi.org/10.1063/5.0007045

 Goerigk, Lars; Hansen, Andreas; Bauer, Christoph; Ehrlich, Stephan;
 Najibi, Asim; Grimme, Stefan. , 19 (48), (2017). 
 A look at the density functional theory zoo with the advanced GMTKN55 database
 for general main group thermochemistry, kinetics and noncovalent interactions.
 https://doi.org/10.1039/C7CP04913G

 Bani-Hashemian, MH; Bruck, S; Luisier, M; VandeVondele, J. 
 JOURNAL OF CHEMICAL PHYSICS, 144 (4), 044113 (2016). 
 A generalized Poisson solver for first-principles device simulations.
 https://doi.org/10.1063/1.4940796

 Schuett, Ole; Messmer, Peter; Hutter, Juerg; VandeVondele, Joost. 
 Electronic Structure Calculations on Graphics Processing Units, John
 Wiley & Sons, Ltd, 173-190 (2016). 
 GPU-Accelerated Sparse Matrix-Matrix Multiplication for
 Linear Scaling Density Functional Theory.
 https://doi.org/10.1002/9781118670712.ch8

 Heinecke, A; Henry, G; Hutchinson, M; Pabst, H. 
 Proceedings of Intl. Supercomputing Conference, 981-991 (2016). 
 LIBXSMM: Accelerating Small Matrix Multiplications
 by Runtime Code Generation.
 https://doi.org/10.1109/SC.2016.83

 Borstnik, U; VandeVondele, J; Weber, V; Hutter, J. 
 PARALLEL COMPUTING, 40 (5-6), 47-58 (2014). 
 Sparse matrix multiplication: The distributed block-compressed sparse
 row library.
 https://doi.org/10.1016/j.parco.2014.03.012

 Hutter, J; Iannuzzi, M; Schiffmann, F; VandeVondele, J. 
 WIREs Comput Mol Sci., 4 (1), 15-25 (2014). 
 CP2K: atomistic simulations of condensed matter systems.
 https://doi.org/10.1002/wcms.1159

 Marek, A; Blum, V; Johanni, R; Havu, V; Lang, B; Auckenthaler, T;
 Heinecke, A; Bungartz, H; Lederer, H. 
 Journal of Physics: Condensed Matter, 26 (21), (2014). 
 The ELPA library: scalable parallel eigenvalue solutions for
 electronic structure
 theory and computational science.
 https://doi.org/10.1088/0953-8984/26/21/213201

 Grimme, S; Ehrlich, S; Goerigk, L. 
 JOURNAL OF COMPUTATIONAL CHEMISTRY, 32, 1456 (2011). 
 Effect of the damping function in dispersion corrected density functional theory.
 https://doi.org/10.1002/jcc.21759

 Grimme, S; Antony, J; Ehrlich, S; Krieg, H. 
 JOURNAL OF CHEMICAL PHYSICS, 132 (15), 154104 (2010). 
 A consistent and accurate ab initio parametrization of density
 functional dispersion correction (DFT-D) for the 94 elements H-Pu.
 https://doi.org/10.1063/1.3382344

 VandeVondele, J; Hutter, J. 
 JOURNAL OF CHEMICAL PHYSICS, 127 (11), 114105 (2007). 
 Gaussian basis sets for accurate calculations on molecular systems in
 gas and condensed phases.
 https://doi.org/10.1063/1.2770708

 Krack, M. 
 THEORETICAL CHEMISTRY ACCOUNTS, 114 (1-3), 145-152 (2005). 
 Pseudopotentials for H to Kr optimized for gradient-corrected
 exchange-correlation functionals.
 https://doi.org/10.1007/s00214-005-0655-y

 VandeVondele, J; Krack, M; Mohamed, F; Parrinello, M; Chassaing, T;
 Hutter, J. COMPUTER PHYSICS COMMUNICATIONS, 167 (2), 103-128 (2005). 
 QUICKSTEP: Fast and accurate density functional calculations using a
 mixed Gaussian and plane waves approach.
 https://doi.org/10.1016/j.cpc.2004.12.014

 Frigo, M; Johnson, SG. 
 PROCEEDINGS OF THE IEEE, 93 (2), 216-231 (2005). 
 The design and implementation of FFTW3.
 https://doi.org/10.1109/JPROC.2004.840301

 Hartwigsen, C; Goedecker, S; Hutter, J. 
 PHYSICAL REVIEW B, 58 (7), 3641-3662 (1998). 
 Relativistic separable dual-space Gaussian pseudopotentials from H to Rn.
 https://doi.org/10.1103/PhysRevB.58.3641

 Lippert, G; Hutter, J; Parrinello, M. 
 MOLECULAR PHYSICS, 92 (3), 477-487 (1997). 
 A hybrid Gaussian and plane wave density functional scheme.
 https://doi.org/10.1080/002689797170220

 Perdew, JP; Burke, K; Ernzerhof, M. 
 PHYSICAL REVIEW LETTERS, 77 (18), 3865-3868 (1996). 
 Generalized gradient approximation made simple.
 https://doi.org/10.1103/PhysRevLett.77.3865

 Goedecker, S; Teter, M; Hutter, J. 
 PHYSICAL REVIEW B, 54 (3), 1703-1710 (1996). 
 Separable dual-space Gaussian pseudopotentials.
 https://doi.org/10.1103/PhysRevB.54.1703


 -------------------------------------------------------------------------------
 -                                                                             -
 -                                T I M I N G                                  -
 -                                                                             -
 -------------------------------------------------------------------------------
 SUBROUTINE                       CALLS  ASD         SELF TIME        TOTAL TIME
                                MAXIMUM       AVERAGE  MAXIMUM  AVERAGE  MAXIMUM
 CP2K                                 1  1.0    0.019    0.031  202.598  202.599
 qs_forces                            1  2.0    0.002    0.002  202.238  202.238
 qs_energies                          1  3.0    0.000    0.001  196.070  196.074
 scf_env_do_scf                       1  4.0    0.000    0.000  186.867  187.016
 scf_env_do_scf_inner_loop           27  5.0    0.002    0.005  186.863  187.012
 rebuild_ks_matrix                   28  6.9    0.000    0.000  101.322  101.349
 qs_ks_build_kohn_sham_matrix        28  7.9    0.005    0.007  101.322  101.349
 qs_ks_update_qs_env                 27  6.0    0.000    0.000   97.266   97.292
 pw_transfer                       1460 12.2    0.107    0.163   64.093   65.267
 fft_wrap_pw1pw2                   1460 13.2    0.014    0.020   63.986   65.123
 fft_wrap_pw1pw2_200               1292 14.4    4.305    5.139   63.116   64.236
 pw_poisson_solve                    28  8.9    0.003    0.006   54.718   54.749
 qs_scf_new_mos                      27  6.0    0.001    0.004   54.481   54.575
 fft3d_ps                          1460 15.2   18.338   20.513   51.483   53.446
 implicit_poisson_solver_mixed_      28  9.9    1.160    1.407   51.599   51.640
 eigensolver                         27  7.0    0.002    0.003   51.434   51.592
 cp_fm_diag_elpa                     29  8.1    0.000    0.001   36.711   36.799
 derive_fft                         168 12.1    0.010    0.013   36.297   36.410
 cp_fm_redistribute_end              29  9.1    4.884   36.372    4.945   36.405
 cp_fm_diag_elpa_base                29  9.0   30.994   35.584   31.288   35.887
 mp_alltoall_z22v                  1460 17.2   27.792   34.327   27.792   34.327
 qs_rho_update_rho_low               28  6.0    0.000    0.001   31.745   31.754
 calculate_rho_elec                  28  7.0    0.054    0.067   31.745   31.753
 apply_P_operator                   140 11.1    0.748    0.826   31.054   31.149
 sum_up_and_integrate                28  8.9    0.152    0.193   31.109   31.137
 integrate_v_rspace                  28  9.9    0.001    0.002   30.958   31.030
 grid_collocate_task_list            28  8.0   20.896   24.820   20.896   24.820
 grid_integrate_task_list            28 10.9   19.484   22.597   19.484   22.597
 x_to_yz                            841 16.4    3.562    4.506   21.102   22.228
 cp_fm_triangular_multiply           81  8.0   16.305   16.484   16.305   16.484
 rs_pw_transfer                     228 10.4    0.003    0.003   13.536   15.566
 yz_to_x                            451 16.4    1.231    1.435   11.372   15.459
 qs_vxc_create                       28  8.9    0.001    0.001   13.816   13.984
 xc_vxc_pw_create                    28  9.9    0.238    0.296   13.815   13.984
 density_rs2pw                       28  8.0    0.002    0.002   10.008   11.904
 xc_pw_derive                       168 11.9    0.003    0.003    9.714   10.773
 apply_poisson_operator_fft          28 10.9    0.000    0.001    9.041    9.192
 apply_inv_laplace_operator_fft      86 11.6    0.212    0.241    8.316    8.605
 potential_pw2rs                     28 10.9    0.008    0.009    7.971    8.028
 mp_waitany                       10512 12.3    5.700    7.981    5.700    7.981
 rs_pw_transfer_RS2PW_200            30  9.9    1.955    2.153    5.769    7.789
 xc_pw_divergence                    28 10.9    0.001    0.002    6.571    7.366
 xc_rho_set_and_dset_create          28 10.9    0.139    0.162    6.749    7.337
 ps_implicit_compute_error_fft       56 10.9    0.352    0.427    6.093    6.529
 mp_alltoall_d11v                   414 10.3    4.422    6.450    4.422    6.450
 ps_implicit_compute_veps            28 10.9    0.163    0.207    6.156    6.261
 pw_scatter_p                       925 15.3    5.210    6.145    5.210    6.145
 scf_post_calculation_gpw             1  4.0    0.000    0.001    5.797    5.803
 write_available_results              1  5.0    0.000    0.000    5.796    5.802
 rs_gather_matrices                  28 10.9    0.035    0.044    3.489    5.459
 rs_pw_transfer_PW2RS_200            30 12.6    2.270    2.363    4.728    4.853
 pw_derive                          672 13.0    4.259    4.511    4.259    4.511
 gspace_mixing                       26  6.0    0.050    0.064    4.353    4.353
 qs_ks_update_qs_env_forces           1  3.0    0.000    0.000    4.097    4.097
 -------------------------------------------------------------------------------

 The number of warnings for this run is : 1
 
 -------------------------------------------------------------------------------
  **** **** ******  **  PROGRAM ENDED AT                 2023-12-03 04:45:43.378
 ***** ** ***  *** **   PROGRAM RAN ON                                     cu001
 **    ****   ******    PROGRAM RAN BY                                     jxzhu
 ***** **    ** ** **   PROGRAM PROCESS ID                                 14199
  **** **  *******  **  PROGRAM STOPPED IN /public/home/jxzhu/tmp_calc/37e9fa8dd
                                           567a9b50567d7c0764695c09ebbdcf5/calc/
                                           002700.000/search_lo.000000
