 DBCSR| CPU Multiplication driver                                           XSMM
 DBCSR| Multrec recursion limit                                              512
 DBCSR| Multiplication stack size                                           1000
 DBCSR| Maximum elements for images                                    UNLIMITED
 DBCSR| Multiplicative factor virtual images                                   1
 DBCSR| Use multiplication densification                                       T
 DBCSR| Multiplication size stacks                                             3
 DBCSR| Use memory pool for CPU allocation                                     F
 DBCSR| Number of 3D layers                                               SINGLE
 DBCSR| Use MPI memory allocation                                              F
 DBCSR| Use RMA algorithm                                                      F
 DBCSR| Use Communication thread                                               T
 DBCSR| Communication thread load                                             87
 DBCSR| MPI: My node id                                                        0
 DBCSR| MPI: Number of nodes                                                  64
 DBCSR| OMP: Current number of threads                                         1
 DBCSR| OMP: Max number of threads                                             1
 DBCSR| Split modifier for TAS multiplication algorithm                  1.0E+00


  **** **** ******  **  PROGRAM STARTED AT               2023-11-26 21:01:17.748
 ***** ** ***  *** **   PROGRAM STARTED ON                                 cu054
 **    ****   ******    PROGRAM STARTED BY                                 jxzhu
 ***** **    ** ** **   PROGRAM PROCESS ID                                 17772
  **** **  *******  **  PROGRAM STARTED IN /public/home/jxzhu/tmp_calc/af2075565
                                           805657d94fa4669dad6f4b174b0a4fb/calc/
                                           000600.000/pbc

 CP2K| version string:                                       CP2K version 2022.1
 CP2K| source code revision number:                                  git:2caeb6f
 CP2K| cp2kflags: omp libint fftw3 libxc elpa parallel mpi3 scalapack cosma xsmm
 CP2K|             plumed2 spglib mkl sirius libvori libbqb
 CP2K| is freely available from                            https://www.cp2k.org/
 CP2K| Program compiled at                           Mon Jul 3 17:37:06 CST 2023
 CP2K| Program compiled on                                                 mu003
 CP2K| Program compiled for                                                local
 CP2K| Data directory path                             /public/home/jxzhu/basis/
 CP2K| Input file name                                                 input.inp
 
 GLOBAL| Force Environment number                                              1
 GLOBAL| Basis set file name                                        BASIS_MOLOPT
 GLOBAL| Potential file name                                      GTH_POTENTIALS
 GLOBAL| MM Potential file name                                     MM_POTENTIAL
 GLOBAL| Coordinate file name                                          coord.xyz
 GLOBAL| Method name                                                        CP2K
 GLOBAL| Project name                                                       cp2k
 GLOBAL| Run type                                                   ENERGY_FORCE
 GLOBAL| FFT library                                                       FFTW3
 GLOBAL| Diagonalization library                                            ELPA
 GLOBAL| Minimum number of eigenvectors for ELPA usage                        16
 GLOBAL| Orthonormality check for eigenvectors                          DISABLED
 GLOBAL| Matrix multiplication library                                     COSMA
 GLOBAL| All-to-all communication in single precision                          F
 GLOBAL| FFTs using library dependent lengths                                  F
 GLOBAL| Grid backend                                                       AUTO
 GLOBAL| Global print level                                               MEDIUM
 GLOBAL| MPI I/O enabled                                                       T
 GLOBAL| Total number of message passing processes                            64
 GLOBAL| Number of threads for this process                                    1
 GLOBAL| This output is from process                                           0
 GLOBAL| Stack size for threads created by OpenMP (OMP_STACKSIZE)        default
 GLOBAL| CPU model name                 Intel(R) Xeon(R) Gold 6338 CPU @ 2.00GHz
 GLOBAL| CPUID                                                              1003

 MEMORY| system memory details [Kb]
 MEMORY|                        rank 0           min           max       average
 MEMORY| MemTotal            263619172     263619172     263619172     263619172
 MEMORY| MemFree             211052456     211052456     211054316     211052581
 MEMORY| Buffers                  3320          3320          3320          3320
 MEMORY| Cached                3745428       3745428       3745428       3745428
 MEMORY| Slab                  1744476       1744476       1744476       1744476
 MEMORY| SReclaimable           241200        241200        241200        241200
 MEMORY| MemLikelyFree       215042404     215042404     215044264     215042529


 *** Fundamental physical constants (SI units) ***

 *** Literature: B. J. Mohr and B. N. Taylor,
 ***             CODATA recommended values of the fundamental physical
 ***             constants: 2006, Web Version 5.1
 ***             http://physics.nist.gov/constants

 Speed of light in vacuum [m/s]                             2.99792458000000E+08
 Magnetic constant or permeability of vacuum [N/A**2]       1.25663706143592E-06
 Electric constant or permittivity of vacuum [F/m]          8.85418781762039E-12
 Planck constant (h) [J*s]                                  6.62606896000000E-34
 Planck constant (h-bar) [J*s]                              1.05457162825177E-34
 Elementary charge [C]                                      1.60217648700000E-19
 Electron mass [kg]                                         9.10938215000000E-31
 Electron g factor [ ]                                     -2.00231930436220E+00
 Proton mass [kg]                                           1.67262163700000E-27
 Fine-structure constant                                    7.29735253760000E-03
 Rydberg constant [1/m]                                     1.09737315685270E+07
 Avogadro constant [1/mol]                                  6.02214179000000E+23
 Boltzmann constant [J/K]                                   1.38065040000000E-23
 Atomic mass unit [kg]                                      1.66053878200000E-27
 Bohr radius [m]                                            5.29177208590000E-11

 *** Conversion factors ***

 [u] -> [a.u.]                                              1.82288848426455E+03
 [Angstrom] -> [Bohr] = [a.u.]                              1.88972613288564E+00
 [a.u.] = [Bohr] -> [Angstrom]                              5.29177208590000E-01
 [a.u.] -> [s]                                              2.41888432650478E-17
 [a.u.] -> [fs]                                             2.41888432650478E-02
 [a.u.] -> [J]                                              4.35974393937059E-18
 [a.u.] -> [N]                                              8.23872205491840E-08
 [a.u.] -> [K]                                              3.15774647902944E+05
 [a.u.] -> [kJ/mol]                                         2.62549961709828E+03
 [a.u.] -> [kcal/mol]                                       6.27509468713739E+02
 [a.u.] -> [Pa]                                             2.94210107994716E+13
 [a.u.] -> [bar]                                            2.94210107994716E+08
 [a.u.] -> [atm]                                            2.90362800883016E+08
 [a.u.] -> [eV]                                             2.72113838565563E+01
 [a.u.] -> [Hz]                                             6.57968392072181E+15
 [a.u.] -> [1/cm] (wave numbers)                            2.19474631370540E+05
 [a.u./Bohr**2] -> [1/cm]                                   5.14048714338585E+03
 

 CELL_TOP| Volume [angstrom^3]:                                     10221.806009
 CELL_TOP| Vector a [angstrom    16.869     0.000     0.000   |a| =    16.869000
 CELL_TOP| Vector b [angstrom    -8.434    14.609     0.000   |b| =    16.869015
 CELL_TOP| Vector c [angstrom     0.000     0.000    41.478   |c| =    41.478000
 CELL_TOP| Angle (b,c), alpha [degree]:                                90.000000
 CELL_TOP| Angle (a,c), beta  [degree]:                                90.000000
 CELL_TOP| Angle (a,b), gamma [degree]:                               119.999970
 CELL_TOP| Numerically orthorhombic:                                          NO
 
 GENERATE|  Preliminary Number of Bonds generated:                             0
 GENERATE|  Achieved consistency in connectivity generation.

 CELL| Volume [angstrom^3]:                                         10221.806009
 CELL| Vector a [angstrom]:      16.869     0.000     0.000   |a| =    16.869000
 CELL| Vector b [angstrom]:      -8.434    14.609     0.000   |b| =    16.869015
 CELL| Vector c [angstrom]:       0.000     0.000    41.478   |c| =    41.478000
 CELL| Angle (b,c), alpha [degree]:                                    90.000000
 CELL| Angle (a,c), beta  [degree]:                                    90.000000
 CELL| Angle (a,b), gamma [degree]:                                   119.999970
 CELL| Numerically orthorhombic:                                              NO

 CELL_REF| Volume [angstrom^3]:                                     10221.806009
 CELL_REF| Vector a [angstrom    16.869     0.000     0.000   |a| =    16.869000
 CELL_REF| Vector b [angstrom    -8.434    14.609     0.000   |b| =    16.869015
 CELL_REF| Vector c [angstrom     0.000     0.000    41.478   |c| =    41.478000
 CELL_REF| Angle (b,c), alpha [degree]:                                90.000000
 CELL_REF| Angle (a,c), beta  [degree]:                                90.000000
 CELL_REF| Angle (a,b), gamma [degree]:                               119.999970
 CELL_REF| Numerically orthorhombic:                                          NO

 *******************************************************************************
 *******************************************************************************
 **                                                                           **
 **     #####                         ##              ##                      **
 **    ##   ##            ##          ##              ##                      **
 **   ##     ##                       ##            ######                    **
 **   ##     ##  ##   ##  ##   #####  ##  ##   ####   ##    #####    #####    **
 **   ##     ##  ##   ##  ##  ##      ## ##   ##      ##   ##   ##  ##   ##   **
 **   ##  ## ##  ##   ##  ##  ##      ####     ###    ##   ######   ######    **
 **    ##  ###   ##   ##  ##  ##      ## ##      ##   ##   ##       ##        **
 **     #######   #####   ##   #####  ##  ##  ####    ##    #####   ##        **
 **           ##                                                    ##        **
 **                                                                           **
 **                                                ... make the atoms dance   **
 **                                                                           **
 **            Copyright (C) by CP2K developers group (2000-2022)             **
 **                      J. Chem. Phys. 152, 194103 (2020)                    **
 **                                                                           **
 *******************************************************************************

 DFT| Spin restricted Kohn-Sham (RKS) calculation                            RKS
 DFT| Multiplicity                                                             1
 DFT| Number of spin states                                                    1
 DFT| Charge                                                                   0
 DFT| Self-interaction correction (SIC)                                       NO
 DFT| Cutoffs: density                                              1.000000E-10
 DFT|          gradient                                             1.000000E-10
 DFT|          tau                                                  1.000000E-10
 DFT|          cutoff_smoothing_range                               0.000000E+00
 DFT| XC density smoothing                                                  NONE
 DFT| XC derivatives                                                          PW

 FUNCTIONAL| PBE:
 FUNCTIONAL| J.P.Perdew, K.Burke, M.Ernzerhof, Phys. Rev. Letter, vol. 77, n 18,
 FUNCTIONAL|  pp. 3865-3868, (1996){spin unpolarized}                           

 vdW POTENTIAL|                                                   Pair Potential
 vdW POTENTIAL|          DFT-D3 (Version 3.1)
 vdW POTENTIAL|          Potential Form: S. Grimme et al, JCP 132: 154104 (2010)
 vdW POTENTIAL|          Zero Damping
 vdW POTENTIAL|          Cutoff Radius [Bohr]:                             20.00
 vdW POTENTIAL|          s6 Scaling Factor:                               1.0000
 vdW POTENTIAL|          sr6 Scaling Factor:                              1.2170
 vdW POTENTIAL|          s8 Scaling Factor:                               0.7220
 vdW POTENTIAL|          Cutoff for CN calculation:                   0.1000E-05

 QS| Method:                                                                 GPW
 QS| Density plane wave grid type                        NON-SPHERICAL FULLSPACE
 QS| Number of grid levels:                                                    4
 QS| Density cutoff [a.u.]:                                                200.0
 QS| Multi grid cutoff [a.u.]: 1) grid level                               200.0
 QS|                           2) grid level                                66.7
 QS|                           3) grid level                                22.2
 QS|                           4) grid level                                 7.4
 QS| Grid level progression factor:                                          3.0
 QS| Relative density cutoff [a.u.]:                                        20.0
 QS| Interaction thresholds: eps_pgf_orb:                                3.2E-07
 QS|                         eps_filter_matrix:                          0.0E+00
 QS|                         eps_core_charge:                            1.0E-15
 QS|                         eps_rho_gspace:                             1.0E-13
 QS|                         eps_rho_rspace:                             1.0E-13
 QS|                         eps_gvg_rspace:                             3.2E-07
 QS|                         eps_ppl:                                    1.0E-02
 QS|                         eps_ppnl:                                   3.2E-09


 ATOMIC KIND INFORMATION

  1. Atomic kind: O                                     Number of atoms:     230

     Orbital Basis Set                                        DZVP-MOLOPT-SR-GTH

       Number of orbital shell sets:                                           1
       Number of orbital shells:                                               5
       Number of primitive Cartesian functions:                                5
       Number of Cartesian basis functions:                                   14
       Number of spherical basis functions:                                   13
       Norm type:                                                              2

       Normalised Cartesian orbitals:

                        Set   Shell   Orbital            Exponent    Coefficient

                          1       1    2s               10.389228       0.396646
                                                         3.849621       0.208811
                                                         1.388401      -0.301641
                                                         0.496955      -0.274061
                                                         0.162492      -0.033677

                          1       2    3s               10.389228       0.303673
                                                         3.849621       0.240943
                                                         1.388401      -0.313066
                                                         0.496955      -0.043055
                                                         0.162492       0.213991

                          1       3    3px              10.389228      -1.530415
                                                         3.849621      -1.371928
                                                         1.388401      -0.761951
                                                         0.496955      -0.253695
                                                         0.162492      -0.035541
                          1       3    3py              10.389228      -1.530415
                                                         3.849621      -1.371928
                                                         1.388401      -0.761951
                                                         0.496955      -0.253695
                                                         0.162492      -0.035541
                          1       3    3pz              10.389228      -1.530415
                                                         3.849621      -1.371928
                                                         1.388401      -0.761951
                                                         0.496955      -0.253695
                                                         0.162492      -0.035541

                          1       4    4px              10.389228      -0.565392
                                                         3.849621      -0.038231
                                                         1.388401      -0.382373
                                                         0.496955       0.179070
                                                         0.162492       0.122714
                          1       4    4py              10.389228      -0.565392
                                                         3.849621      -0.038231
                                                         1.388401      -0.382373
                                                         0.496955       0.179070
                                                         0.162492       0.122714
                          1       4    4pz              10.389228      -0.565392
                                                         3.849621      -0.038231
                                                         1.388401      -0.382373
                                                         0.496955       0.179070
                                                         0.162492       0.122714

                          1       5    4dx2             10.389228       1.867377
                                                         3.849621       0.670994
                                                         1.388401       1.353441
                                                         0.496955       0.273538
                                                         0.162492       0.006620
                          1       5    4dxy             10.389228       3.234392
                                                         3.849621       1.162195
                                                         1.388401       2.344229
                                                         0.496955       0.473781
                                                         0.162492       0.011466
                          1       5    4dxz             10.389228       3.234392
                                                         3.849621       1.162195
                                                         1.388401       2.344229
                                                         0.496955       0.473781
                                                         0.162492       0.011466
                          1       5    4dy2             10.389228       1.867377
                                                         3.849621       0.670994
                                                         1.388401       1.353441
                                                         0.496955       0.273538
                                                         0.162492       0.006620
                          1       5    4dyz             10.389228       3.234392
                                                         3.849621       1.162195
                                                         1.388401       2.344229
                                                         0.496955       0.473781
                                                         0.162492       0.011466
                          1       5    4dz2             10.389228       1.867377
                                                         3.849621       0.670994
                                                         1.388401       1.353441
                                                         0.496955       0.273538
                                                         0.162492       0.006620

       Atomic covalent radius [Angstrom]:                                  0.730

       Atomic van der Waals radius [Angstrom]:                             1.520

     GTH Potential information for                                    GTH-PBE-q6

       Description:                       Goedecker-Teter-Hutter pseudopotential
                                           Goedecker et al., PRB 54, 1703 (1996)
                                          Hartwigsen et al., PRB 58, 3641 (1998)
                                                      Krack, TCA 114, 145 (2005)

       Gaussian exponent of the core charge distribution:               8.360253
       Electronic configuration (s p d ...):                               2   4

       Parameters of the local part of the GTH pseudopotential:

                          rloc        C1          C2          C3          C4
                        0.244554  -16.667215    2.487311

       Parameters of the non-local part of the GTH pseudopotential:

                   l      r(l)      h(i,j,l)

                   0    0.220956   18.337458
                   1    0.211332

  2. Atomic kind: H                                     Number of atoms:     460

     Orbital Basis Set                                        DZVP-MOLOPT-SR-GTH

       Number of orbital shell sets:                                           1
       Number of orbital shells:                                               3
       Number of primitive Cartesian functions:                                5
       Number of Cartesian basis functions:                                    5
       Number of spherical basis functions:                                    5
       Norm type:                                                              2

       Normalised Cartesian orbitals:

                        Set   Shell   Orbital            Exponent    Coefficient

                          1       1    2s               10.068468      -0.133023
                                                         2.680223      -0.177618
                                                         0.791502      -0.258419
                                                         0.239116      -0.107525
                                                         0.082193      -0.014019

                          1       2    3s               10.068468       0.344673
                                                         2.680223       1.819821
                                                         0.791502      -0.999069
                                                         0.239116       0.017430
                                                         0.082193       0.082660

                          1       3    3px              10.068468       0.155326
                                                         2.680223       0.367157
                                                         0.791502       0.311480
                                                         0.239116       0.080105
                                                         0.082193       0.033440
                          1       3    3py              10.068468       0.155326
                                                         2.680223       0.367157
                                                         0.791502       0.311480
                                                         0.239116       0.080105
                                                         0.082193       0.033440
                          1       3    3pz              10.068468       0.155326
                                                         2.680223       0.367157
                                                         0.791502       0.311480
                                                         0.239116       0.080105
                                                         0.082193       0.033440

       Atomic covalent radius [Angstrom]:                                  0.320

       Atomic van der Waals radius [Angstrom]:                             1.090

     GTH Potential information for                                    GTH-PBE-q1

       Description:                       Goedecker-Teter-Hutter pseudopotential
                                           Goedecker et al., PRB 54, 1703 (1996)
                                          Hartwigsen et al., PRB 58, 3641 (1998)
                                                      Krack, TCA 114, 145 (2005)

       Gaussian exponent of the core charge distribution:              12.500000
       Electronic configuration (s p d ...):                                   1

       Parameters of the local part of the GTH pseudopotential:

                          rloc        C1          C2          C3          C4
                        0.200000   -4.178900    0.724463

  3. Atomic kind: Pt                                    Number of atoms:     216

     Orbital Basis Set                      DZVP-A5-Q10-323-MOL-T1-DERIVED_SET-1

       Number of orbital shell sets:                                           1
       Number of orbital shells:                                               6
       Number of primitive Cartesian functions:                                5
       Number of Cartesian basis functions:                                   23
       Number of spherical basis functions:                                   20
       Norm type:                                                              2

       Normalised Cartesian orbitals:

                        Set   Shell   Orbital            Exponent    Coefficient

                          1       1    2s                2.521825       0.177473
                                                         1.453920      -0.063399
                                                         0.614053      -0.407089
                                                         0.232656       0.262254
                                                         0.074788       0.047371

                          1       2    3s                2.521825      -0.049056
                                                         1.453920       0.044904
                                                         0.614053      -0.009756
                                                         0.232656      -0.144709
                                                         0.074788       0.144085

                          1       3    3px               2.521825      -0.317572
                                                         1.453920       0.534826
                                                         0.614053      -0.489458
                                                         0.232656       0.245631
                                                         0.074788       0.018221
                          1       3    3py               2.521825      -0.317572
                                                         1.453920       0.534826
                                                         0.614053      -0.489458
                                                         0.232656       0.245631
                                                         0.074788       0.018221
                          1       3    3pz               2.521825      -0.317572
                                                         1.453920       0.534826
                                                         0.614053      -0.489458
                                                         0.232656       0.245631
                                                         0.074788       0.018221

                          1       4    4dx2              2.521825       3.008522
                                                         1.453920      -1.224251
                                                         0.614053       0.225691
                                                         0.232656       0.125144
                                                         0.074788      -0.015348
                          1       4    4dxy              2.521825       5.210912
                                                         1.453920      -2.120465
                                                         0.614053       0.390909
                                                         0.232656       0.216756
                                                         0.074788      -0.026584
                          1       4    4dxz              2.521825       5.210912
                                                         1.453920      -2.120465
                                                         0.614053       0.390909
                                                         0.232656       0.216756
                                                         0.074788      -0.026584
                          1       4    4dy2              2.521825       3.008522
                                                         1.453920      -1.224251
                                                         0.614053       0.225691
                                                         0.232656       0.125144
                                                         0.074788      -0.015348
                          1       4    4dyz              2.521825       5.210912
                                                         1.453920      -2.120465
                                                         0.614053       0.390909
                                                         0.232656       0.216756
                                                         0.074788      -0.026584
                          1       4    4dz2              2.521825       3.008522
                                                         1.453920      -1.224251
                                                         0.614053       0.225691
                                                         0.232656       0.125144
                                                         0.074788      -0.015348

                          1       5    5dx2              2.521825       0.698026
                                                         1.453920      -1.511486
                                                         0.614053      -0.335394
                                                         0.232656      -0.025564
                                                         0.074788      -0.002699
                          1       5    5dxy              2.521825       1.209017
                                                         1.453920      -2.617970
                                                         0.614053      -0.580920
                                                         0.232656      -0.044277
                                                         0.074788      -0.004674
                          1       5    5dxz              2.521825       1.209017
                                                         1.453920      -2.617970
                                                         0.614053      -0.580920
                                                         0.232656      -0.044277
                                                         0.074788      -0.004674
                          1       5    5dy2              2.521825       0.698026
                                                         1.453920      -1.511486
                                                         0.614053      -0.335394
                                                         0.232656      -0.025564
                                                         0.074788      -0.002699
                          1       5    5dyz              2.521825       1.209017
                                                         1.453920      -2.617970
                                                         0.614053      -0.580920
                                                         0.232656      -0.044277
                                                         0.074788      -0.004674
                          1       5    5dz2              2.521825       0.698026
                                                         1.453920      -1.511486
                                                         0.614053      -0.335394
                                                         0.232656      -0.025564
                                                         0.074788      -0.002699

                          1       6    6dx2              2.521825       0.831079
                                                         1.453920      -0.709226
                                                         0.614053      -0.137351
                                                         0.232656       0.068642
                                                         0.074788       0.011745
                          1       6    6dxy              2.521825       1.439472
                                                         1.453920      -1.228415
                                                         0.614053      -0.237899
                                                         0.232656       0.118891
                                                         0.074788       0.020343
                          1       6    6dxz              2.521825       1.439472
                                                         1.453920      -1.228415
                                                         0.614053      -0.237899
                                                         0.232656       0.118891
                                                         0.074788       0.020343
                          1       6    6dy2              2.521825       0.831079
                                                         1.453920      -0.709226
                                                         0.614053      -0.137351
                                                         0.232656       0.068642
                                                         0.074788       0.011745
                          1       6    6dyz              2.521825       1.439472
                                                         1.453920      -1.228415
                                                         0.614053      -0.237899
                                                         0.232656       0.118891
                                                         0.074788       0.020343
                          1       6    6dz2              2.521825       0.831079
                                                         1.453920      -0.709226
                                                         0.614053      -0.137351
                                                         0.232656       0.068642
                                                         0.074788       0.011745

       Atomic covalent radius [Angstrom]:                                  1.300

       Atomic van der Waals radius [Angstrom]:                             1.750

     GTH Potential information for                                   GTH-PBE-q10

       Description:                       Goedecker-Teter-Hutter pseudopotential
                                           Goedecker et al., PRB 54, 1703 (1996)
                                          Hartwigsen et al., PRB 58, 3641 (1998)
                                                      Krack, TCA 114, 145 (2005)

       Gaussian exponent of the core charge distribution:               1.317676
       Electronic configuration (s p d ...):                           1   0   9

       Parameters of the local part of the GTH pseudopotential:

                          rloc        C1          C2          C3          C4
                        0.616000   11.313635

       Parameters of the non-local part of the GTH pseudopotential:

                   l      r(l)      h(i,j,l)

                   0    0.550904    4.733491   -1.784594
                                   -1.784594    2.303901
                   1    0.674138    2.534798   -1.778066
                                   -1.778066    2.103836
                   2    0.457392   -7.264011    2.558665
                                    2.558665   -2.901253


 MOLECULE KIND INFORMATION


 All atoms are their own molecule, skipping detailed information


 TOTAL NUMBERS AND MAXIMUM NUMBERS

  Total number of            - Atomic kinds:                                   3
                             - Atoms:                                        906
                             - Shell sets:                                   906
                             - Shells:                                      3826
                             - Primitive Cartesian functions:               4530
                             - Cartesian basis functions:                  10488
                             - Spherical basis functions:                   9610

  Maximum angular momentum of- Orbital basis functions:                        2
                             - Local part of the GTH pseudopotential:          2
                             - Non-local part of the GTH pseudopotential:      4


 MODULE QUICKSTEP:  ATOMIC COORDINATES IN angstrom

 Atom  Kind  Element       X           Y           Z          Z(eff)       Mass
    1   1 O    8       3.430000   -1.910000   15.970001       6.0000     15.9994
    2   2 H    1       3.220000   -1.310000   15.110001       1.0000      1.0079
    3   2 H    1       4.340000   -2.220000   15.850000       1.0000      1.0079
    4   1 O    8       9.850000    4.050000   12.740001       6.0000     15.9994
    5   2 H    1       8.860001    4.100000   12.570001       1.0000      1.0079
    6   2 H    1      10.400001    4.100000   11.890000       1.0000      1.0079
    7   1 O    8       6.140000   -3.660000   18.650002       6.0000     15.9994
    8   2 H    1       5.170000   -3.580000   18.540001       1.0000      1.0079
    9   2 H    1       6.380000   -2.920000   19.260002       1.0000      1.0079
   10   1 O    8      -4.270000   -6.060000   25.770000       6.0000     15.9994
   11   2 H    1      -4.080000   -5.890000   24.830000       1.0000      1.0079
   12   2 H    1      -3.430000   -6.360001   26.270000       1.0000      1.0079
   13   1 O    8       4.440001   -3.700000   33.530003       6.0000     15.9994
   14   2 H    1       3.760000   -3.010000   33.230003       1.0000      1.0079
   15   2 H    1       4.010000   -4.600000   33.100002       1.0000      1.0079
   16   1 O    8       4.160000   21.970001   12.140001       6.0000     15.9994
   17   2 H    1       4.810000   22.670002   11.940001       1.0000      1.0079
   18   2 H    1       3.920000   22.200001   13.030001       1.0000      1.0079
   19   1 O    8      -0.240000   18.600002   21.700001       6.0000     15.9994
   20   2 H    1      -0.390000   17.970001   20.950001       1.0000      1.0079
   21   2 H    1       0.620000   19.130001   21.639999       1.0000      1.0079
   22   1 O    8      -1.160000   19.580000    9.080001       6.0000     15.9994
   23   2 H    1      -1.090000   19.370001   10.040001       1.0000      1.0079
   24   2 H    1       6.310000    5.050000    8.980000       1.0000      1.0079
   25   1 O    8      -6.400001   -9.150001   22.270000       6.0000     15.9994
   26   2 H    1      -7.020000   -9.570000   21.560001       1.0000      1.0079
   27   2 H    1      -6.620001   -9.610001   23.120001       1.0000      1.0079
   28   1 O    8       7.750000   25.300003   32.200005       6.0000     15.9994
   29   2 H    1       7.300000   24.480001   32.410004       1.0000      1.0079
   30   2 H    1       8.690001   25.260000   32.520000       1.0000      1.0079
   31   1 O    8       2.540000    2.400000   16.760002       6.0000     15.9994
   32   2 H    1       1.970000    2.130000   16.010000       1.0000      1.0079
   33   2 H    1       3.250000    1.590000   16.850000       1.0000      1.0079
   34   1 O    8      -2.310000    2.730000   27.140003       6.0000     15.9994
   35   2 H    1      -3.260000    2.530000   26.870001       1.0000      1.0079
   36   2 H    1      -2.020000    2.280000   27.980001       1.0000      1.0079
   37   1 O    8      -5.240001  -14.000001   28.040001       6.0000     15.9994
   38   2 H    1      -5.900001  -13.420000   27.530001       1.0000      1.0079
   39   2 H    1      -5.280000  -14.900002   27.600002       1.0000      1.0079
   40   1 O    8      26.560001   18.820002    9.050000       6.0000     15.9994
   41   2 H    1      26.610001   18.740002    8.070001       1.0000      1.0079
   42   2 H    1      25.610001   18.990000    9.220000       1.0000      1.0079
   43   1 O    8      20.660000   -3.430000   30.000002       6.0000     15.9994
   44   2 H    1      21.639999   -3.520000   29.890001       1.0000      1.0079
   45   2 H    1      20.440002   -2.760000   30.670002       1.0000      1.0079
   46   1 O    8      -5.550000    1.140000   28.620003       6.0000     15.9994
   47   2 H    1      -6.290000    0.540000   28.890001       1.0000      1.0079
   48   2 H    1      -5.430000    0.990000   27.640001       1.0000      1.0079
   49   1 O    8     -13.820001   20.480001    8.930000       6.0000     15.9994
   50   2 H    1     -14.370001   21.290001    9.040001       1.0000      1.0079
   51   2 H    1     -13.760000   20.190001    7.930000       1.0000      1.0079
   52   1 O    8      -0.890000    5.840001   24.350002       6.0000     15.9994
   53   2 H    1       0.030000    6.160001   24.110001       1.0000      1.0079
   54   2 H    1      -0.870000    4.940000   23.900002       1.0000      1.0079
   55   1 O    8      -8.430000   -5.050000   24.030001       6.0000     15.9994
   56   2 H    1      -8.270000   -5.640000   24.870003       1.0000      1.0079
   57   2 H    1      -9.380000   -5.110001   23.960001       1.0000      1.0079
   58   1 O    8       9.070001    2.280000   32.540001       6.0000     15.9994
   59   2 H    1       9.190001    1.770000   33.400002       1.0000      1.0079
   60   2 H    1       9.880000    2.870000   32.360001       1.0000      1.0079
   61   1 O    8     -21.240002   25.710001   26.950001       6.0000     15.9994
   62   2 H    1     -21.290001   24.780003   26.620003       1.0000      1.0079
   63   2 H    1      -4.010000   26.230001   26.200001       1.0000      1.0079
   64   1 O    8       7.100000   -5.350000   14.770001       6.0000     15.9994
   65   2 H    1       6.500000   -5.940001   15.240001       1.0000      1.0079
   66   2 H    1      23.760002   -4.400000   15.080000       1.0000      1.0079
   67   1 O    8      18.370001    0.720000    9.080001       6.0000     15.9994
   68   2 H    1       9.320001   15.710001    8.410000       1.0000      1.0079
   69   2 H    1      19.270000    0.880000    8.590000       1.0000      1.0079
   70   1 O    8      -4.330000   15.000001   32.400002       6.0000     15.9994
   71   2 H    1      -4.210001   15.370001   33.350002       1.0000      1.0079
   72   2 H    1      -4.820000   15.640001   31.810001       1.0000      1.0079
   73   1 O    8      -1.320000    0.580000   21.330002       6.0000     15.9994
   74   2 H    1      -0.320000    0.240000   21.360001       1.0000      1.0079
   75   2 H    1      -1.850000   -0.220000   21.740000       1.0000      1.0079
   76   1 O    8      -8.230000    4.810000   28.960001       6.0000     15.9994
   77   2 H    1      -8.570001    5.590000   29.420002       1.0000      1.0079
   78   2 H    1      -7.400000    5.130000   28.670002       1.0000      1.0079
   79   1 O    8      -7.570000  -11.880001   18.670002       6.0000     15.9994
   80   2 H    1      -8.510000  -12.170000   18.570002       1.0000      1.0079
   81   2 H    1      -6.940000  -12.340001   17.970001       1.0000      1.0079
   82   1 O    8      11.050000    1.630000    8.890000       6.0000     15.9994
   83   2 H    1      11.240001    1.910000    8.010000       1.0000      1.0079
   84   2 H    1      10.120001    1.490000    9.000000       1.0000      1.0079
   85   1 O    8       5.300000   17.250000   11.900001       6.0000     15.9994
   86   2 H    1       5.070000   16.330002   11.910001       1.0000      1.0079
   87   2 H    1       4.380000   17.550001   11.570001       1.0000      1.0079
   88   1 O    8      12.360001   -7.130001   11.940001       6.0000     15.9994
   89   2 H    1      -4.600000   -7.090001   10.930000       1.0000      1.0079
   90   2 H    1      12.410001   -6.190000   12.390001       1.0000      1.0079
   91   1 O    8       7.510000    5.740000   33.440002       6.0000     15.9994
   92   2 H    1       8.280001    6.180000   33.139999       1.0000      1.0079
   93   2 H    1       7.480001    4.890000   32.930000       1.0000      1.0079
   94   1 O    8       9.330000   10.470000   23.460003       6.0000     15.9994
   95   2 H    1       9.050000    9.490001   23.500002       1.0000      1.0079
   96   2 H    1       8.440001   10.810001   23.540001       1.0000      1.0079
   97   1 O    8      -1.160000  -12.050000    8.270000       6.0000     15.9994
   98   2 H    1      -2.120000  -12.270001    8.570001       1.0000      1.0079
   99   2 H    1      -1.030000  -11.060000    8.420001       1.0000      1.0079
  100   1 O    8       0.260000   -5.200000   32.970001       6.0000     15.9994
  101   2 H    1       0.460000   -4.350000   32.580002       1.0000      1.0079
  102   2 H    1      -0.040000   -5.170000   33.900002       1.0000      1.0079
  103   1 O    8       7.470000   11.870001   20.420000       6.0000     15.9994
  104   2 H    1       6.780000   12.410001   19.980001       1.0000      1.0079
  105   2 H    1      -9.750000   11.510000   21.280001       1.0000      1.0079
  106   1 O    8       3.490000    4.870000   17.080000       6.0000     15.9994
  107   2 H    1       4.290000    4.890000   16.530001       1.0000      1.0079
  108   2 H    1       3.150000    3.890000   16.950001       1.0000      1.0079
  109   1 O    8      18.100000    7.510000    8.970000       6.0000     15.9994
  110   2 H    1      19.100000    7.600000    9.160001       1.0000      1.0079
  111   2 H    1      18.090002    6.630001    8.530001       1.0000      1.0079
  112   1 O    8     -17.400002   13.880000   22.139999       6.0000     15.9994
  113   2 H    1     -16.930000   14.220000   21.300001       1.0000      1.0079
  114   2 H    1     -16.750000   13.240002   22.450001       1.0000      1.0079
  115   1 O    8      -0.470000   14.040001   12.830001       6.0000     15.9994
  116   2 H    1       0.420000   14.000001   12.320002       1.0000      1.0079
  117   2 H    1      -0.840000   13.130001   12.670001       1.0000      1.0079
  118   1 O    8     -12.220000    4.880000   21.580000       6.0000     15.9994
  119   2 H    1     -11.620001    5.400000   22.190001       1.0000      1.0079
  120   2 H    1     -13.180000    5.110001   21.790001       1.0000      1.0079
  121   1 O    8       5.470000    1.010000   19.360001       6.0000     15.9994
  122   2 H    1       4.970000    1.430000   20.140001       1.0000      1.0079
  123   2 H    1       5.690000    0.100000   19.770000       1.0000      1.0079
  124   1 O    8     -16.130001   12.010001   18.410000       6.0000     15.9994
  125   2 H    1     -24.540003   25.870001   19.030001       1.0000      1.0079
  126   2 H    1     -15.780001   12.800001   18.960001       1.0000      1.0079
  127   1 O    8      14.400001   -4.470000   14.810000       6.0000     15.9994
  128   2 H    1      14.060000   -4.910000   15.760001       1.0000      1.0079
  129   2 H    1       6.730001   10.750000   15.050001       1.0000      1.0079
  130   1 O    8       1.520000    3.660000   32.600002       6.0000     15.9994
  131   2 H    1       1.180000    4.590000   32.630001       1.0000      1.0079
  132   2 H    1       1.640000    3.470000   33.570000       1.0000      1.0079
  133   1 O    8     -18.280001   19.290001   17.870001       6.0000     15.9994
  134   2 H    1     -18.810001   19.040001   17.040001       1.0000      1.0079
  135   2 H    1     -19.050001   19.660000   18.500002       1.0000      1.0079
  136   1 O    8      -4.110000    0.930000   17.940001       6.0000     15.9994
  137   2 H    1      -5.020000    1.020000   18.300001       1.0000      1.0079
  138   2 H    1      -4.260000    1.340000   17.000000       1.0000      1.0079
  139   1 O    8      -2.640000    3.520000   21.330002       6.0000     15.9994
  140   2 H    1      -3.260000    3.960000   21.970001       1.0000      1.0079
  141   2 H    1      -3.190000    2.800000   21.020000       1.0000      1.0079
  142   1 O    8       4.720000   10.050000    9.150001       6.0000     15.9994
  143   2 H    1       5.030000   10.610001    8.450001       1.0000      1.0079
  144   2 H    1       3.840000   10.400001    9.080001       1.0000      1.0079
  145   1 O    8     -10.360001   23.660002   12.110001       6.0000     15.9994
  146   2 H    1       6.690001   23.660002   13.110001       1.0000      1.0079
  147   2 H    1      -9.660000   23.090000   11.610001       1.0000      1.0079
  148   1 O    8     -11.450001   12.640000   25.230000       6.0000     15.9994
  149   2 H    1     -11.650001   13.530001   24.950001       1.0000      1.0079
  150   2 H    1     -10.540000   12.710000   25.680000       1.0000      1.0079
  151   1 O    8       5.060000   14.750000   30.150002       6.0000     15.9994
  152   2 H    1       4.430000   15.270000   29.570004       1.0000      1.0079
  153   2 H    1       4.760000   14.910001   31.110001       1.0000      1.0079
  154   1 O    8      12.250000    0.790000   32.440002       6.0000     15.9994
  155   2 H    1      11.310000    0.500000   32.580002       1.0000      1.0079
  156   2 H    1      12.610001    0.770000   33.350002       1.0000      1.0079
  157   1 O    8      -8.300000    3.440000   25.080002       6.0000     15.9994
  158   2 H    1      -8.550000    2.750000   25.700001       1.0000      1.0079
  159   2 H    1      -8.070001    3.020000   24.180002       1.0000      1.0079
  160   1 O    8       6.710000   -1.890000    8.730000       6.0000     15.9994
  161   2 H    1       6.680000   -2.810000    8.430000       1.0000      1.0079
  162   2 H    1       5.730000   -1.520000    8.670000       1.0000      1.0079
  163   1 O    8      22.800003   -3.400000   26.720001       6.0000     15.9994
  164   2 H    1      21.930000   -3.130000   27.080002       1.0000      1.0079
  165   2 H    1      22.640001   -4.170000   26.150000       1.0000      1.0079
  166   1 O    8       1.700000   12.130001   15.960001       6.0000     15.9994
  167   2 H    1       1.440000   12.190001   16.920000       1.0000      1.0079
  168   2 H    1       2.700000   12.140001   16.070002       1.0000      1.0079
  169   1 O    8     -25.900002   11.620001   30.470001       6.0000     15.9994
  170   2 H    1      -8.460000   12.320002   30.100002       1.0000      1.0079
  171   2 H    1      -9.880000   11.770000   29.930000       1.0000      1.0079
  172   1 O    8      10.760001    1.620000   14.130001       6.0000     15.9994
  173   2 H    1      10.390000    2.270000   13.520001       1.0000      1.0079
  174   2 H    1      10.030001    1.280000   14.820002       1.0000      1.0079
  175   1 O    8      -3.290000   16.780001   28.030003       6.0000     15.9994
  176   2 H    1      -2.600000   16.630001   27.380001       1.0000      1.0079
  177   2 H    1      -3.970000   16.060001   27.950001       1.0000      1.0079
  178   1 O    8       2.320000    8.390000   29.740002       6.0000     15.9994
  179   2 H    1       3.260000    8.680000   29.780003       1.0000      1.0079
  180   2 H    1       2.130000    8.070001   30.640001       1.0000      1.0079
  181   1 O    8      14.080001    5.160000   28.430002       6.0000     15.9994
  182   2 H    1      14.220000    4.270000   28.060001       1.0000      1.0079
  183   2 H    1      14.270000    5.790000   27.730003       1.0000      1.0079
  184   1 O    8       4.500000   10.990001   33.380001       6.0000     15.9994
  185   2 H    1       3.520000   11.070000   33.049999       1.0000      1.0079
  186   2 H    1       4.850000   10.310000   32.780003       1.0000      1.0079
  187   1 O    8       2.280000   28.380001   18.470001       6.0000     15.9994
  188   2 H    1       2.660000   27.390001   18.600002       1.0000      1.0079
  189   2 H    1       1.480000   28.160002   17.930000       1.0000      1.0079
  190   1 O    8      -0.700000   16.150002   26.500000       6.0000     15.9994
  191   2 H    1      -0.690000   15.280001   26.140001       1.0000      1.0079
  192   2 H    1      -0.290000   16.250002   27.370003       1.0000      1.0079
  193   1 O    8       1.550000    9.360001   19.580000       6.0000     15.9994
  194   2 H    1       2.490000    9.570000   19.410002       1.0000      1.0079
  195   2 H    1       1.480000    9.150001   20.520000       1.0000      1.0079
  196   1 O    8     -11.880001    9.040001   29.930000       6.0000     15.9994
  197   2 H    1     -11.440001    8.910000   30.830002       1.0000      1.0079
  198   2 H    1     -11.620001   10.010000   29.690001       1.0000      1.0079
  199   1 O    8      -7.430000   13.810000   20.940001       6.0000     15.9994
  200   2 H    1      -6.980000   13.940001   20.040001       1.0000      1.0079
  201   2 H    1      -7.990000   13.020000   20.700001       1.0000      1.0079
  202   1 O    8      -0.980000   22.530001   14.670001       6.0000     15.9994
  203   2 H    1      -1.510000   23.310001   14.680000       1.0000      1.0079
  204   2 H    1      -0.720000   22.320002   15.580001       1.0000      1.0079
  205   1 O    8      22.620001   -7.820001    8.890000       6.0000     15.9994
  206   2 H    1      14.280001    6.590000    7.890000       1.0000      1.0079
  207   2 H    1      21.670000   -8.140000    9.050000       1.0000      1.0079
  208   1 O    8      -5.560000  -18.680000   21.580000       6.0000     15.9994
  209   2 H    1      -6.300001  -18.880001   22.139999       1.0000      1.0079
  210   2 H    1      -5.170000  -17.820000   21.890001       1.0000      1.0079
  211   1 O    8       6.860001   -1.070000   29.210003       6.0000     15.9994
  212   2 H    1       6.320000   -0.780000   28.470001       1.0000      1.0079
  213   2 H    1       6.500000   -0.430000   29.910002       1.0000      1.0079
  214   1 O    8       6.540000   -0.260000   15.380001       6.0000     15.9994
  215   2 H    1       5.740000    0.000000   15.840001       1.0000      1.0079
  216   2 H    1       6.470000    0.090000   14.480001       1.0000      1.0079
  217   1 O    8      -9.780001    3.800000   31.980001       6.0000     15.9994
  218   2 H    1     -10.590000    3.450000   32.430004       1.0000      1.0079
  219   2 H    1      -9.050000    3.160000   32.210003       1.0000      1.0079
  220   1 O    8      11.770000    4.180000   17.700001       6.0000     15.9994
  221   2 H    1      11.400002    3.280000   17.440001       1.0000      1.0079
  222   2 H    1      12.770000    4.100000   17.730001       1.0000      1.0079
  223   1 O    8     -10.150002   11.280001   23.150002       6.0000     15.9994
  224   2 H    1       6.070001   10.559999   23.030003       1.0000      1.0079
  225   2 H    1     -10.670000   11.830001   23.820002       1.0000      1.0079
  226   1 O    8       1.040000   27.030001    9.240000       6.0000     15.9994
  227   2 H    1       1.810000   26.450003    8.920000       1.0000      1.0079
  228   2 H    1      18.030001   27.930002    8.900001       1.0000      1.0079
  229   1 O    8       0.840000    1.330000   15.140000       6.0000     15.9994
  230   2 H    1       0.220000    1.630000   14.400001       1.0000      1.0079
  231   2 H    1       0.340000    0.700000   15.670000       1.0000      1.0079
  232   1 O    8       2.110000    7.770000   32.530003       6.0000     15.9994
  233   2 H    1       1.280000    7.130001   32.570004       1.0000      1.0079
  234   2 H    1       2.080000    8.100000   33.470001       1.0000      1.0079
  235   1 O    8     -15.050001    8.390000   22.160000       6.0000     15.9994
  236   2 H    1     -14.980001    7.430000   22.310001       1.0000      1.0079
  237   2 H    1     -15.820000    8.690001   22.730000       1.0000      1.0079
  238   1 O    8      10.510000   -3.210000   32.350002       6.0000     15.9994
  239   2 H    1       1.900000   12.410001   32.250000       1.0000      1.0079
  240   2 H    1      10.430001   -3.560000   31.430000       1.0000      1.0079
  241   1 O    8       1.860000   -6.180000   18.220001       6.0000     15.9994
  242   2 H    1       1.160000   -6.610000   17.590000       1.0000      1.0079
  243   2 H    1       2.220000   -6.870000   18.850000       1.0000      1.0079
  244   1 O    8       5.580000   -5.160000    8.330001       6.0000     15.9994
  245   2 H    1       4.650001   -4.820000    8.510000       1.0000      1.0079
  246   2 H    1       5.580000   -6.100000    8.690001       1.0000      1.0079
  247   1 O    8      10.940001   -2.810000   12.280001       6.0000     15.9994
  248   2 H    1      10.250001   -3.230000   12.860001       1.0000      1.0079
  249   2 H    1      10.740000   -2.790000   11.310000       1.0000      1.0079
  250   1 O    8       9.370001   18.360001   29.630001       6.0000     15.9994
  251   2 H    1       8.780001   18.650002   30.360003       1.0000      1.0079
  252   2 H    1       9.780001   19.120001   29.180002       1.0000      1.0079
  253   1 O    8      -4.160000   13.680000    9.040001       6.0000     15.9994
  254   2 H    1      -4.230000   13.040000    9.810000       1.0000      1.0079
  255   2 H    1      -4.700000   13.180000    8.380001       1.0000      1.0079
  256   1 O    8       8.560000   -6.360001   26.330002       6.0000     15.9994
  257   2 H    1       8.580000   -5.740000   27.190001       1.0000      1.0079
  258   2 H    1       7.800000   -6.980000   26.440001       1.0000      1.0079
  259   1 O    8     -11.610001    8.900001   17.030001       6.0000     15.9994
  260   2 H    1     -10.960001    8.220000   17.460001       1.0000      1.0079
  261   2 H    1     -12.420001    8.380001   16.550001       1.0000      1.0079
  262   1 O    8       3.080000    8.420001   15.850000       6.0000     15.9994
  263   2 H    1       2.360000    7.730001   15.900001       1.0000      1.0079
  264   2 H    1       2.660000    9.070001   15.230001       1.0000      1.0079
  265   1 O    8      -3.350000  -12.880001    9.150001       6.0000     15.9994
  266   2 H    1      -4.150000  -12.500000    9.570000       1.0000      1.0079
  267   2 H    1       4.810000    0.740000    8.870000       1.0000      1.0079
  268   1 O    8      -3.090000    8.590000   28.600002       6.0000     15.9994
  269   2 H    1      -2.800000    8.150001   27.800003       1.0000      1.0079
  270   2 H    1      -2.620000    9.520000   28.750002       1.0000      1.0079
  271   1 O    8       4.410000   10.250001   19.410002       6.0000     15.9994
  272   2 H    1       4.810000    9.860001   18.600002       1.0000      1.0079
  273   2 H    1       4.920000    9.720000   20.090000       1.0000      1.0079
  274   1 O    8      -7.850000   13.710001   28.920002       6.0000     15.9994
  275   2 H    1      -8.340000   14.560001   28.860001       1.0000      1.0079
  276   2 H    1      -8.140000   13.200001   28.040001       1.0000      1.0079
  277   1 O    8      -2.320000    4.240000   18.150002       6.0000     15.9994
  278   2 H    1     -18.430000    4.210001   17.540001       1.0000      1.0079
  279   2 H    1      -2.270000    3.460000   18.690001       1.0000      1.0079
  280   1 O    8      23.630001   -6.370000   32.600002       6.0000     15.9994
  281   2 H    1      23.230001   -6.290000   33.520004       1.0000      1.0079
  282   2 H    1      24.320002   -7.060000   32.670002       1.0000      1.0079
  283   1 O    8       9.240000   -2.360000   23.860001       6.0000     15.9994
  284   2 H    1       0.580000   12.640000   24.770002       1.0000      1.0079
  285   2 H    1       8.880001   -3.250000   24.000000       1.0000      1.0079
  286   1 O    8     -28.320000   21.230001   22.390001       6.0000     15.9994
  287   2 H    1     -11.400002   21.240002   21.370001       1.0000      1.0079
  288   2 H    1     -27.420002   21.060001   22.770002       1.0000      1.0079
  289   1 O    8      -4.750000    4.650001   23.720001       6.0000     15.9994
  290   2 H    1      -5.560000    4.870000   23.150002       1.0000      1.0079
  291   2 H    1      -4.120000    5.420001   23.440001       1.0000      1.0079
  292   1 O    8       9.990001    1.760000   18.200001       6.0000     15.9994
  293   2 H    1       9.170000    2.180000   18.580000       1.0000      1.0079
  294   2 H    1       9.640000    1.380000   17.370001       1.0000      1.0079
  295   1 O    8       6.060000    7.970000   27.500002       6.0000     15.9994
  296   2 H    1       6.170001    7.010000   27.710001       1.0000      1.0079
  297   2 H    1       5.830000    8.480000   28.330002       1.0000      1.0079
  298   1 O    8       3.810000   16.120001   22.100000       6.0000     15.9994
  299   2 H    1       3.630000   15.180001   21.860001       1.0000      1.0079
  300   2 H    1       3.040000   16.540001   22.600000       1.0000      1.0079
  301   1 O    8       3.210000    0.090000   24.350002       6.0000     15.9994
  302   2 H    1       4.160000    0.390000   24.520000       1.0000      1.0079
  303   2 H    1       2.690000    0.970000   24.170000       1.0000      1.0079
  304   1 O    8       8.710001    0.210000    8.290001       6.0000     15.9994
  305   2 H    1       8.080000   -0.540000    8.520000       1.0000      1.0079
  306   2 H    1       8.130000    1.030000    8.420001       1.0000      1.0079
  307   1 O    8      -9.430000    7.860000    8.940001       6.0000     15.9994
  308   2 H    1      -9.440001    6.910000    8.760000       1.0000      1.0079
  309   2 H    1      -9.670001    8.250000    8.090000       1.0000      1.0079
  310   1 O    8      -4.050000   23.730001   22.880001       6.0000     15.9994
  311   2 H    1      -3.460000   23.390003   22.180002       1.0000      1.0079
  312   2 H    1      -4.940000   23.410000   22.740002       1.0000      1.0079
  313   1 O    8       5.790000   17.910002   32.680000       6.0000     15.9994
  314   2 H    1       6.190000   17.030001   32.850002       1.0000      1.0079
  315   2 H    1       4.850000   17.680000   32.650002       1.0000      1.0079
  316   1 O    8      12.330000   -0.850000    8.930000       6.0000     15.9994
  317   2 H    1      11.890000    0.010000    9.050000       1.0000      1.0079
  318   2 H    1      12.400000   -0.890000    7.920001       1.0000      1.0079
  319   1 O    8       3.860000    7.500000    9.220000       6.0000     15.9994
  320   2 H    1       4.350000    6.660000    8.910000       1.0000      1.0079
  321   2 H    1       4.450000    8.270000    8.860001       1.0000      1.0079
  322   1 O    8       0.310000    5.000000   20.030001       6.0000     15.9994
  323   2 H    1       0.830000    4.320000   19.540001       1.0000      1.0079
  324   2 H    1      -0.590000    4.640000   20.070002       1.0000      1.0079
  325   1 O    8      17.260000    9.760000   28.700001       6.0000     15.9994
  326   2 H    1      16.510000   10.020000   29.320002       1.0000      1.0079
  327   2 H    1      17.840000    9.030001   29.000000       1.0000      1.0079
  328   1 O    8      -5.230000    7.940001   14.850000       6.0000     15.9994
  329   2 H    1      -5.770000    7.070000   14.880000       1.0000      1.0079
  330   2 H    1      -4.350000    7.650001   15.120001       1.0000      1.0079
  331   1 O    8     -10.840001    8.860001   32.500004       6.0000     15.9994
  332   2 H    1      -9.910001    9.160001   32.510002       1.0000      1.0079
  333   2 H    1     -10.890001    7.880001   32.450001       1.0000      1.0079
  334   1 O    8      -5.190001    8.880001   32.450001       6.0000     15.9994
  335   2 H    1      -5.310000    8.380001   31.600000       1.0000      1.0079
  336   2 H    1      -6.110000    8.980000   32.860001       1.0000      1.0079
  337   1 O    8       2.670000   18.830002   26.090002       6.0000     15.9994
  338   2 H    1      10.200001    4.040000   25.990002       1.0000      1.0079
  339   2 H    1     -13.860001   19.180000   25.190001       1.0000      1.0079
  340   1 O    8      13.700001   27.670002   18.690001       6.0000     15.9994
  341   2 H    1      13.320000   27.080002   18.040001       1.0000      1.0079
  342   2 H    1      13.230000   28.510000   18.460001       1.0000      1.0079
  343   1 O    8      13.830000    4.440001   14.720001       6.0000     15.9994
  344   2 H    1      13.950001    4.730000   13.780001       1.0000      1.0079
  345   2 H    1      14.730001    4.360000   15.030001       1.0000      1.0079
  346   1 O    8       9.510000   -0.890000   29.600000       6.0000     15.9994
  347   2 H    1       9.860001   -1.330000   28.720001       1.0000      1.0079
  348   2 H    1       8.550000   -0.800000   29.330002       1.0000      1.0079
  349   1 O    8      13.710001    9.370001   22.959999       6.0000     15.9994
  350   2 H    1      13.010001    9.840000   22.420002       1.0000      1.0079
  351   2 H    1      13.700001    8.390000   22.630001       1.0000      1.0079
  352   1 O    8       6.250000   -2.870000   15.880001       6.0000     15.9994
  353   2 H    1       6.520000   -2.000000   15.540000       1.0000      1.0079
  354   2 H    1       6.390000   -2.890000   16.850000       1.0000      1.0079
  355   1 O    8      -4.000000   -4.620000   12.670001       6.0000     15.9994
  356   2 H    1      -3.620000   -4.450000   13.550000       1.0000      1.0079
  357   2 H    1      -4.650001   -3.840000   12.410001       1.0000      1.0079
  358   1 O    8      13.050001   16.570000   14.150001       6.0000     15.9994
  359   2 H    1      13.420000   16.380001   13.230000       1.0000      1.0079
  360   2 H    1      12.170000   16.960001   13.880000       1.0000      1.0079
  361   1 O    8      -8.560000   15.860001   32.280003       6.0000     15.9994
  362   2 H    1      -8.340000   16.170002   33.180000       1.0000      1.0079
  363   2 H    1      -7.790000   16.220001   31.760002       1.0000      1.0079
  364   1 O    8       1.500000   12.140001   27.340002       6.0000     15.9994
  365   2 H    1       1.100000   11.340000   27.780001       1.0000      1.0079
  366   2 H    1       2.370000   11.820001   27.030001       1.0000      1.0079
  367   1 O    8      -4.310000   12.050000   11.060000       6.0000     15.9994
  368   2 H    1      -3.520000   11.600000   11.330000       1.0000      1.0079
  369   2 H    1      -4.960000   11.750001   11.740000       1.0000      1.0079
  370   1 O    8     -14.040001   -1.890000   32.360001       6.0000     15.9994
  371   2 H    1     -14.980001   -1.710000   32.580002       1.0000      1.0079
  372   2 H    1     -13.660001   -0.960000   32.370003       1.0000      1.0079
  373   1 O    8       2.860000   23.850002   26.820002       6.0000     15.9994
  374   2 H    1       2.760000   23.750000   27.750000       1.0000      1.0079
  375   2 H    1       2.010000   23.910000   26.370001       1.0000      1.0079
  376   1 O    8      -0.470000    3.940000   16.049999       6.0000     15.9994
  377   2 H    1       0.150000    4.700000   15.940001       1.0000      1.0079
  378   2 H    1       0.100000    3.190000   16.270000       1.0000      1.0079
  379   1 O    8       2.710000   -8.700001   28.400002       6.0000     15.9994
  380   2 H    1       3.640000   -8.410000   28.720001       1.0000      1.0079
  381   2 H    1       2.880000   -9.280001   27.590000       1.0000      1.0079
  382   1 O    8      -7.500000    1.940000   23.010002       6.0000     15.9994
  383   2 H    1      -8.190001    2.030000   22.330000       1.0000      1.0079
  384   2 H    1      -7.630000    1.030000   23.330002       1.0000      1.0079
  385   1 O    8      -1.480000   11.730001   11.580001       6.0000     15.9994
  386   2 H    1      -1.430000   11.850000   10.570001       1.0000      1.0079
  387   2 H    1      -1.610000   10.770000   11.770000       1.0000      1.0079
  388   1 O    8      -2.110000    5.520000   12.300000       6.0000     15.9994
  389   2 H    1      -2.920000    6.070001   12.040001       1.0000      1.0079
  390   2 H    1      -1.290000    6.040000   12.310000       1.0000      1.0079
  391   1 O    8       7.420001   16.680000    8.170000       6.0000     15.9994
  392   2 H    1       6.950001   15.800000    8.450001       1.0000      1.0079
  393   2 H    1       7.020000   17.450001    8.710001       1.0000      1.0079
  394   1 O    8       6.840000   19.550001   30.940001       6.0000     15.9994
  395   2 H    1      14.910001    5.160000   30.050001       1.0000      1.0079
  396   2 H    1       6.390000   18.720001   31.300001       1.0000      1.0079
  397   1 O    8      -2.290000    6.840000   26.350002       6.0000     15.9994
  398   2 H    1      -1.800000    6.370000   25.620001       1.0000      1.0079
  399   2 H    1      -2.730000    7.620000   25.900002       1.0000      1.0079
  400   1 O    8      -4.030000    6.050000   33.220001       6.0000     15.9994
  401   2 H    1      -4.270000    7.000000   33.139999       1.0000      1.0079
  402   2 H    1      -3.070000    6.070001   33.139999       1.0000      1.0079
  403   1 O    8      17.400002   23.640001   12.330000       6.0000     15.9994
  404   2 H    1      17.120001   22.870003   12.890000       1.0000      1.0079
  405   2 H    1      16.650002   23.990002   11.800001       1.0000      1.0079
  406   1 O    8       7.230001   -1.250000   32.560001       6.0000     15.9994
  407   2 H    1       7.380000   -2.230000   32.260002       1.0000      1.0079
  408   2 H    1       6.790000   -1.370000   33.470001       1.0000      1.0079
  409   1 O    8      20.260000    3.160000   10.630001       6.0000     15.9994
  410   2 H    1      19.450001    3.530000   10.110001       1.0000      1.0079
  411   2 H    1      20.020000    3.080000   11.580001       1.0000      1.0079
  412   1 O    8     -11.440001   -8.220000   20.000000       6.0000     15.9994
  413   2 H    1     -11.390000   -9.070001   19.450001       1.0000      1.0079
  414   2 H    1     -11.120001   -7.490000   19.370001       1.0000      1.0079
  415   1 O    8      -9.740001   11.890000    8.140000       6.0000     15.9994
  416   2 H    1      -9.980000   12.770000    8.540000       1.0000      1.0079
  417   2 H    1      -8.810000   11.800001    8.460000       1.0000      1.0079
  418   1 O    8      24.880001   41.610001   12.600001       6.0000     15.9994
  419   2 H    1      25.930002   41.460003   12.410001       1.0000      1.0079
  420   2 H    1      24.300001   41.060005   12.010001       1.0000      1.0079
  421   1 O    8      15.300001    3.960000    9.800000       6.0000     15.9994
  422   2 H    1      14.850000    4.820000    9.540001       1.0000      1.0079
  423   2 H    1      14.830000    3.680000   10.590000       1.0000      1.0079
  424   1 O    8       1.660000   13.820001   32.389999       6.0000     15.9994
  425   2 H    1       1.240000   14.120001   31.570000       1.0000      1.0079
  426   2 H    1       9.300001   -0.620000   33.000000       1.0000      1.0079
  427   1 O    8       8.200001   13.240002   32.650002       6.0000     15.9994
  428   2 H    1       7.970000   12.730000   31.810001       1.0000      1.0079
  429   2 H    1       8.310000   14.240000   32.459999       1.0000      1.0079
  430   1 O    8      -5.400000   11.140001   18.990000       6.0000     15.9994
  431   2 H    1      -5.910000   10.410000   18.540001       1.0000      1.0079
  432   2 H    1      -5.610001   11.000000   19.900002       1.0000      1.0079
  433   1 O    8      -4.580000   -0.970000   20.760002       6.0000     15.9994
  434   2 H    1      -4.890000   -1.710000   21.380001       1.0000      1.0079
  435   2 H    1      -4.250000   -1.450000   19.990002       1.0000      1.0079
  436   1 O    8     -12.970000   14.380001   12.850000       6.0000     15.9994
  437   2 H    1     -13.290001   13.560000   12.460001       1.0000      1.0079
  438   2 H    1      -5.340000    0.270000   13.280001       1.0000      1.0079
  439   1 O    8      -0.070000   -5.210000   19.890001       6.0000     15.9994
  440   2 H    1       0.570000   -5.520000   19.190002       1.0000      1.0079
  441   2 H    1      -0.190000   -4.250000   19.850002       1.0000      1.0079
  442   1 O    8      -1.900000   -3.880000   11.310000       6.0000     15.9994
  443   2 H    1      -1.940000   -4.120000   10.320001       1.0000      1.0079
  444   2 H    1      -2.640000   -4.320000   11.730001       1.0000      1.0079
  445   1 O    8     -14.360001    3.470000   13.150001       6.0000     15.9994
  446   2 H    1     -14.360001    4.510000   13.080001       1.0000      1.0079
  447   2 H    1     -15.330001    3.310000   13.070001       1.0000      1.0079
  448   1 O    8       4.660000    4.830000    8.890000       6.0000     15.9994
  449   2 H    1       4.160000    4.460000    8.150001       1.0000      1.0079
  450   2 H    1      21.160002    4.590000    9.770000       1.0000      1.0079
  451   1 O    8       5.530000   12.260000   28.930000       6.0000     15.9994
  452   2 H    1       5.150001   13.120001   29.210003       1.0000      1.0079
  453   2 H    1       5.060000   11.850000   28.230001       1.0000      1.0079
  454   1 O    8       5.570001    4.130000   29.710003       6.0000     15.9994
  455   2 H    1       6.300001    3.980000   30.320000       1.0000      1.0079
  456   2 H    1       5.590000    3.300000   29.190002       1.0000      1.0079
  457   1 O    8      -8.420001    5.990000   25.690001       6.0000     15.9994
  458   2 H    1      -7.510000    6.200000   26.090002       1.0000      1.0079
  459   2 H    1      -8.380001    5.090000   25.360001       1.0000      1.0079
  460   1 O    8      13.870001    1.080000   24.139999       6.0000     15.9994
  461   2 H    1      14.830000    1.010000   24.090002       1.0000      1.0079
  462   2 H    1      -3.410000    1.310000   23.330002       1.0000      1.0079
  463   1 O    8      -9.120001  -12.540001   25.280001       6.0000     15.9994
  464   2 H    1      -9.850000  -12.260000   25.860003       1.0000      1.0079
  465   2 H    1      -8.230000  -12.370001   25.660002       1.0000      1.0079
  466   1 O    8       8.440001   -4.900000    8.210000       6.0000     15.9994
  467   2 H    1       7.470000   -4.950000    8.500000       1.0000      1.0079
  468   2 H    1       8.980000   -5.710001    8.570001       1.0000      1.0079
  469   1 O    8     -14.760000    6.670001   25.470001       6.0000     15.9994
  470   2 H    1     -15.430001    7.210000   25.980000       1.0000      1.0079
  471   2 H    1     -13.980001    7.220001   25.480001       1.0000      1.0079
  472   1 O    8       4.130000    3.910000   32.090000       6.0000     15.9994
  473   2 H    1       4.350000    4.030000   31.100002       1.0000      1.0079
  474   2 H    1       3.170000    3.800000   32.230000       1.0000      1.0079
  475   1 O    8      16.710001    2.380000   12.770000       6.0000     15.9994
  476   2 H    1      15.850000    2.910000   12.630000       1.0000      1.0079
  477   2 H    1      16.520000    1.560000   12.190001       1.0000      1.0079
  478   1 O    8     -15.600000   14.310001   20.090000       6.0000     15.9994
  479   2 H    1     -14.620000   14.200001   20.270002       1.0000      1.0079
  480   2 H    1     -15.710001   15.120001   19.390001       1.0000      1.0079
  481   1 O    8      16.260000   13.240002   26.020002       6.0000     15.9994
  482   2 H    1      17.030001   12.940001   26.600000       1.0000      1.0079
  483   2 H    1      15.620001   12.440001   26.120003       1.0000      1.0079
  484   1 O    8      -2.790000    6.990001   15.710001       6.0000     15.9994
  485   2 H    1      -3.170000    6.120000   15.450001       1.0000      1.0079
  486   2 H    1      -2.800000    7.100000   16.670000       1.0000      1.0079
  487   1 O    8      13.460001   38.340000   25.370003       6.0000     15.9994
  488   2 H    1      12.520000   38.440002   25.640001       1.0000      1.0079
  489   2 H    1      13.550000   38.530003   24.360001       1.0000      1.0079
  490   1 O    8      11.480000   14.440001   14.160000       6.0000     15.9994
  491   2 H    1      12.140001   15.190001   14.200001       1.0000      1.0079
  492   2 H    1      10.640000   14.890001   14.510001       1.0000      1.0079
  493   1 O    8       2.260000    5.900001   28.580000       6.0000     15.9994
  494   2 H    1      -6.110000   21.410000   28.970001       1.0000      1.0079
  495   2 H    1       2.170000    6.180000   27.650002       1.0000      1.0079
  496   1 O    8       1.420000    2.200000   27.130001       6.0000     15.9994
  497   2 H    1      -7.430000   17.150000   27.930002       1.0000      1.0079
  498   2 H    1      -6.720000   17.610001   26.580002       1.0000      1.0079
  499   1 O    8      12.760000   15.180001   17.150000       6.0000     15.9994
  500   2 H    1      11.980001   14.500000   17.250000       1.0000      1.0079
  501   2 H    1      13.160001   15.130001   18.170000       1.0000      1.0079
  502   1 O    8      14.350000   -0.540000   14.530001       6.0000     15.9994
  503   2 H    1      13.620001   -0.580000   13.850001       1.0000      1.0079
  504   2 H    1      14.090000    0.400000   14.870001       1.0000      1.0079
  505   1 O    8      14.920001   -0.310000    9.140000       6.0000     15.9994
[...]
    899      3      Pt          0.00103328     0.00167816     0.01311523
    900      3      Pt          0.00867239     0.00856655    -0.01675189
    901      3      Pt          0.00974900    -0.00125675    -0.00276025
    902      3      Pt         -0.00923461    -0.00351660    -0.00550943
    903      3      Pt         -0.00477625     0.00240433    -0.00495648
    904      3      Pt         -0.00189463    -0.00441855     0.00540015
    905      3      Pt          0.01775037    -0.00100828     0.00253363
    906      3      Pt         -0.02093289    -0.01270871    -0.00392814
 SUM OF ATOMIC FORCES           0.01659877     0.02877104    -0.04182172     0.05340737

 STRESS| Analytical stress tensor [GPa]
 STRESS|                        x                   y                   z
 STRESS|      x       -2.77686258993E+00   7.01780450627E-02   6.50565567059E-02
 STRESS|      y        7.01780450627E-02  -2.82418365266E+00  -9.47436448838E-02
 STRESS|      z        6.50565567059E-02  -9.47436448838E-02  -7.05859803055E-01
 STRESS| 1/3 Trace                                            -2.10230201521E+00
 STRESS| Determinant                                          -5.49612341526E+00

 STRESS| Eigenvectors and eigenvalues of the analytical stress tensor [GPa]
 STRESS|                        1                   2                   3
 STRESS| Eigenvalues  -2.88065336673E+00  -2.72646661385E+00  -6.99786065071E-01
 STRESS|      x          -0.581831335688      0.812763122163      0.029806107805
 STRESS|      y           0.811596274679      0.582593157643     -0.043551114735
 STRESS|      z           0.052761574449      0.001148877199      0.998606477219

 -------------------------------------------------------------------------------
 -                                                                             -
 -                                DBCSR STATISTICS                             -
 -                                                                             -
 -------------------------------------------------------------------------------
 COUNTER                                    TOTAL       BLAS       SMM       ACC
 flops     5 x     5 x   288          82526515200       0.0%    100.0%      0.0%
 flops     5 x     5 x   292          83672716800       0.0%    100.0%      0.0%
 flops     5 x    13 x   288          93182469120       0.0%    100.0%      0.0%
 flops    13 x     5 x   288          93370268160       0.0%    100.0%      0.0%
 flops    13 x    20 x   288          93797084160       0.0%    100.0%      0.0%
 flops    20 x    13 x   288          94172682240       0.0%    100.0%      0.0%
 flops     5 x    13 x   292          94476670080       0.0%    100.0%      0.0%
 flops    13 x     5 x   292          94667077440       0.0%    100.0%      0.0%
 flops    13 x    20 x   292          95099821440       0.0%    100.0%      0.0%
 flops    20 x    13 x   292          95480636160       0.0%    100.0%      0.0%
 flops    13 x    13 x   288          99423657216       0.0%    100.0%      0.0%
 flops    13 x    13 x   292         100804541344       0.0%    100.0%      0.0%
 flops    20 x     5 x   288         102580300800       0.0%    100.0%      0.0%
 flops     5 x    20 x   288         102628454400       0.0%    100.0%      0.0%
 flops    20 x     5 x   292         104005027200       0.0%    100.0%      0.0%
 flops     5 x    20 x   292         104053849600       0.0%    100.0%      0.0%
 flops    20 x    20 x   288         410373734400       0.0%    100.0%      0.0%
 flops    20 x    20 x   292         416073369600       0.0%    100.0%      0.0%
 flops     5 x     5 x   320         550176768000       0.0%    100.0%      0.0%
 flops     5 x    13 x   320         621216460800       0.0%    100.0%      0.0%
 flops    13 x     5 x   320         622468454400       0.0%    100.0%      0.0%
 flops    13 x    20 x   320         625313894400       0.0%    100.0%      0.0%
 flops    20 x    13 x   320         627817881600       0.0%    100.0%      0.0%
 flops    13 x    13 x   320         662824381440       0.0%    100.0%      0.0%
 flops    20 x     5 x   320         683868672000       0.0%    100.0%      0.0%
 flops     5 x    20 x   320         684189696000       0.0%    100.0%      0.0%
 flops    20 x    20 x   320        2735824896000       0.0%    100.0%      0.0%
 flops inhomo. stacks                           0       0.0%      0.0%      0.0%
 flops total                        10.174090E+12       0.0%    100.0%      0.0%
 flops max/rank                    164.883140E+09       0.0%    100.0%      0.0%
 matmuls inhomo. stacks                         0       0.0%      0.0%      0.0%
 matmuls total                          146672096       0.0%    100.0%      0.0%
 number of processed stacks                389120       0.0%    100.0%      0.0%
 average stack size                                     0.0     376.9       0.0
 marketing flops                    28.925774E+12
 -------------------------------------------------------------------------------
 # multiplications                             76
 max memory usage/rank               1.862898E+09
 # max total images/rank                        1
 # max 3D layers                                1
 # MPI messages exchanged                   68096
 MPI messages size (bytes):
  total size                       204.500730E+09
  min size                           2.762496E+06
  max size                           3.077120E+06
  average size                       3.003124E+06
 MPI breakdown and total messages size (bytes):
             size <=      128                   0                        0
       128 < size <=     8192                   0                        0
      8192 < size <=    32768                   0                        0
     32768 < size <=   131072                   0                        0
    131072 < size <=  4194304               68096             204500800000
   4194304 < size <= 16777216                   0                        0
  16777216 < size                               0                        0
 -------------------------------------------------------------------------------
 -                                                                             -
 -                      DBCSR MESSAGE PASSING PERFORMANCE                      -
 -                                                                             -
 -------------------------------------------------------------------------------
 ROUTINE             CALLS      AVE VOLUME [Bytes]
 MP_Bcast               28                     12.
 MP_Allreduce          606                     10.
 MP_Alltoall          2128                1976774.
 MP_ISend             2432                1329597.
 MP_IRecv             2432                1310413.
 -------------------------------------------------------------------------------

 -------------------------------------------------------------------------------
 -                                                                             -
 -                                DBM STATISTICS                               -
 -                                                                             -
 -------------------------------------------------------------------------------
    M  x    N  x    K                                          COUNT     PERCENT
 -------------------------------------------------------------------------------

 -------------------------------------------------------------------------------
 -                                                                             -
 -                                GRID STATISTICS                              -
 -                                                                             -
 -------------------------------------------------------------------------------
 LP    KERNEL             BACKEND                              COUNT     PERCENT
 3     collocate general  REF                               52792108      18.88%
 3     integrate general  REF                               52155459      18.65%
 2     collocate general  REF                               49816480      17.81%
 2     integrate general  REF                               49161000      17.58%
 4     collocate general  REF                               37094764      13.27%
 4     integrate general  REF                               36606675      13.09%
 6     integrate general  REF                                 694633       0.25%
 5     integrate general  REF                                 655480       0.23%
 7     integrate general  REF                                 488089       0.17%
 0     collocate general  REF                                 115968       0.04%
 0     integrate general  REF                                  57984       0.02%
 -------------------------------------------------------------------------------

 MEMORY| Estimated peak process memory [MiB]                                2105

 -------------------------------------------------------------------------------
 ----                             MULTIGRID INFO                            ----
 -------------------------------------------------------------------------------
 count for grid        1:         731572          cutoff [a.u.]          200.00
 count for grid        2:         807224          cutoff [a.u.]           66.67
 count for grid        3:         741600          cutoff [a.u.]           22.22
 count for grid        4:         830998          cutoff [a.u.]            7.41
 total gridlevel count  :        3111394

 -------------------------------------------------------------------------------
 -                                                                             -
 -                         MESSAGE PASSING PERFORMANCE                         -
 -                                                                             -
 -------------------------------------------------------------------------------

 ROUTINE             CALLS      AVE VOLUME [Bytes]
 MP_Group                4
 MP_Bcast              252                2342720.
 MP_Allreduce         1310                   1910.
 MP_Sync                79
 MP_Alltoall          1688               14836349.
 MP_SendRecv           252                  13776.
 MP_ISendRecv        19152                 113680.
 MP_Wait             42868
 MP_ISend            22176                 340212.
 MP_IRecv            22176                 340212.
 MP_Recv               308                2460160.
 MP_Write_All            3                1540656.
 -------------------------------------------------------------------------------


 -------------------------------------------------------------------------------
 -                                                                             -
 -                           R E F E R E N C E S                               -
 -                                                                             -
 -------------------------------------------------------------------------------
 
 CP2K version 2022.1, the CP2K developers group (2022).
 CP2K is freely available from https://www.cp2k.org/ .

 Kuehne,Thomas D.; Iannuzzi,Marcella; Del Ben,Mauro;
 Rybkin,Vladimir V.; Seewald,Patrick; Stein,Frederick; Laino,Teodoro;
 Khaliullin,Rustam Z.; Schuett,Ole; Schiffmann,Florian; Golze,Dorothea;
 Wilhelm,Jan; Chulkov,Sergey; Bani-Hashemian,Mohammad Hossein;
 Weber,Valery; Borstnik,Urban; Taillefumier,Mathieu;
 Jakobovits,Alice Shoshana; Lazzaro,Alfio; Pabst,Hans; Mueller,Tiziano;
 Schade,Robert; Guidon,Manuel; Andermatt,Samuel; Holmberg,Nico;
 Schenter,Gregory K.; Hehn,Anna; Bussy,Augustin; Belleflamme,Fabian;
 Tabacchi,Gloria; Gloess,Andreas; Lass,Michael; Bethune,Iain;
 Mundy,Christopher J.; Plessl,Christian; Watkins,Matt;
 VandeVondele,Joost; Krack,Matthias; Hutter,Juerg. 
 The Journal of Chemical Physics, 152 (19), (2020). 
 CP2K: An electronic structure and molecular dynamics software package -
 Quickstep: Efficient and accurate electronic structure calculations.
 https://doi.org/10.1063/5.0007045

 Goerigk, Lars; Hansen, Andreas; Bauer, Christoph; Ehrlich, Stephan;
 Najibi, Asim; Grimme, Stefan. , 19 (48), (2017). 
 A look at the density functional theory zoo with the advanced GMTKN55 database
 for general main group thermochemistry, kinetics and noncovalent interactions.
 https://doi.org/10.1039/C7CP04913G

 Schuett, Ole; Messmer, Peter; Hutter, Juerg; VandeVondele, Joost. 
 Electronic Structure Calculations on Graphics Processing Units, John
 Wiley & Sons, Ltd, 173-190 (2016). 
 GPU-Accelerated Sparse Matrix-Matrix Multiplication for
 Linear Scaling Density Functional Theory.
 https://doi.org/10.1002/9781118670712.ch8

 Heinecke, A; Henry, G; Hutchinson, M; Pabst, H. 
 Proceedings of Intl. Supercomputing Conference, 981-991 (2016). 
 LIBXSMM: Accelerating Small Matrix Multiplications
 by Runtime Code Generation.
 https://doi.org/10.1109/SC.2016.83

 Borstnik, U; VandeVondele, J; Weber, V; Hutter, J. 
 PARALLEL COMPUTING, 40 (5-6), 47-58 (2014). 
 Sparse matrix multiplication: The distributed block-compressed sparse
 row library.
 https://doi.org/10.1016/j.parco.2014.03.012

 Hutter, J; Iannuzzi, M; Schiffmann, F; VandeVondele, J. 
 WIREs Comput Mol Sci., 4 (1), 15-25 (2014). 
 CP2K: atomistic simulations of condensed matter systems.
 https://doi.org/10.1002/wcms.1159

 Marek, A; Blum, V; Johanni, R; Havu, V; Lang, B; Auckenthaler, T;
 Heinecke, A; Bungartz, H; Lederer, H. 
 Journal of Physics: Condensed Matter, 26 (21), (2014). 
 The ELPA library: scalable parallel eigenvalue solutions for
 electronic structure
 theory and computational science.
 https://doi.org/10.1088/0953-8984/26/21/213201

 Grimme, S; Ehrlich, S; Goerigk, L. 
 JOURNAL OF COMPUTATIONAL CHEMISTRY, 32, 1456 (2011). 
 Effect of the damping function in dispersion corrected density functional theory.
 https://doi.org/10.1002/jcc.21759

 Grimme, S; Antony, J; Ehrlich, S; Krieg, H. 
 JOURNAL OF CHEMICAL PHYSICS, 132 (15), 154104 (2010). 
 A consistent and accurate ab initio parametrization of density
 functional dispersion correction (DFT-D) for the 94 elements H-Pu.
 https://doi.org/10.1063/1.3382344

 VandeVondele, J; Hutter, J. 
 JOURNAL OF CHEMICAL PHYSICS, 127 (11), 114105 (2007). 
 Gaussian basis sets for accurate calculations on molecular systems in
 gas and condensed phases.
 https://doi.org/10.1063/1.2770708

 Krack, M. 
 THEORETICAL CHEMISTRY ACCOUNTS, 114 (1-3), 145-152 (2005). 
 Pseudopotentials for H to Kr optimized for gradient-corrected
 exchange-correlation functionals.
 https://doi.org/10.1007/s00214-005-0655-y

 VandeVondele, J; Krack, M; Mohamed, F; Parrinello, M; Chassaing, T;
 Hutter, J. COMPUTER PHYSICS COMMUNICATIONS, 167 (2), 103-128 (2005). 
 QUICKSTEP: Fast and accurate density functional calculations using a
 mixed Gaussian and plane waves approach.
 https://doi.org/10.1016/j.cpc.2004.12.014

 Frigo, M; Johnson, SG. 
 PROCEEDINGS OF THE IEEE, 93 (2), 216-231 (2005). 
 The design and implementation of FFTW3.
 https://doi.org/10.1109/JPROC.2004.840301

 Hartwigsen, C; Goedecker, S; Hutter, J. 
 PHYSICAL REVIEW B, 58 (7), 3641-3662 (1998). 
 Relativistic separable dual-space Gaussian pseudopotentials from H to Rn.
 https://doi.org/10.1103/PhysRevB.58.3641

 Lippert, G; Hutter, J; Parrinello, M. 
 MOLECULAR PHYSICS, 92 (3), 477-487 (1997). 
 A hybrid Gaussian and plane wave density functional scheme.
 https://doi.org/10.1080/002689797170220

 Perdew, JP; Burke, K; Ernzerhof, M. 
 PHYSICAL REVIEW LETTERS, 77 (18), 3865-3868 (1996). 
 Generalized gradient approximation made simple.
 https://doi.org/10.1103/PhysRevLett.77.3865

 Goedecker, S; Teter, M; Hutter, J. 
 PHYSICAL REVIEW B, 54 (3), 1703-1710 (1996). 
 Separable dual-space Gaussian pseudopotentials.
 https://doi.org/10.1103/PhysRevB.54.1703


 -------------------------------------------------------------------------------
 -                                                                             -
 -                                T I M I N G                                  -
 -                                                                             -
 -------------------------------------------------------------------------------
 SUBROUTINE                       CALLS  ASD         SELF TIME        TOTAL TIME
                                MAXIMUM       AVERAGE  MAXIMUM  AVERAGE  MAXIMUM
 CP2K                                 1  1.0    0.029    0.039  905.914  905.918
 qs_forces                            1  2.0    0.002    0.002  905.532  905.536
 qs_energies                          1  3.0    0.000    0.000  893.077  893.087
 scf_env_do_scf                       1  4.0    0.000    0.000  884.803  885.047
 scf_env_do_scf_inner_loop           75  5.0    0.004    0.012  884.803  885.047
 qs_scf_new_mos                      75  6.0    0.005    0.013  359.066  359.576
 eigensolver                         75  7.0    0.007    0.009  333.869  334.323
 rebuild_ks_matrix                   76  7.0    0.000    0.000  280.916  280.955
 qs_ks_build_kohn_sham_matrix        76  8.0    0.012    0.014  280.916  280.955
 qs_ks_update_qs_env                 75  6.0    0.001    0.001  272.915  272.953
 qs_rho_update_rho_low               76  6.0    0.001    0.001  239.580  239.608
 calculate_rho_elec                  76  7.0    0.178    0.210  239.579  239.607
 sum_up_and_integrate                76  9.0    0.319    0.386  236.278  236.325
 integrate_v_rspace                  76 10.0    0.003    0.003  235.959  236.031
 grid_collocate_task_list            76  8.0  208.643  214.784  208.643  214.784
 grid_integrate_task_list            76 11.0  203.585  208.893  203.585  208.893
 cp_fm_diag_elpa                     75  8.0    0.001    0.001  196.004  196.510
 cp_fm_diag_elpa_base                75  9.0  192.978  193.677  195.645  195.702
 cp_fm_triangular_multiply          225  8.0  135.098  136.929  135.098  136.929
 rs_pw_transfer                     612 10.5    0.007    0.008   39.231   43.539
 pw_transfer                       1520 10.9    0.107    0.144   42.019   43.003
 fft_wrap_pw1pw2                   1368 12.0    0.013    0.017   41.540   42.479
 fft_wrap_pw1pw2_200                912 13.3    3.771    4.130   39.984   40.814
 qs_vxc_create                       76  9.0    0.002    0.003   39.330   39.560
 xc_vxc_pw_create                    76 10.0    0.695    0.734   39.328   39.558
 density_rs2pw                       76  8.0    0.005    0.006   28.533   33.073
 fft3d_ps                          1368 14.0   15.138   16.989   30.607   31.841
 xc_pw_derive                       456 12.0    0.008    0.009   25.084   26.282
 mp_waitany                       22176 12.4   18.296   22.968   18.296   22.968
 xc_rho_set_and_dset_create          76 11.0    0.368    0.392   21.105   22.748
 potential_pw2rs                     76 11.0    0.028    0.034   22.036   22.097
 rs_pw_transfer_RS2PW_200            78 10.0    4.878    5.221   16.983   21.357
 cp_dbcsr_plus_fm_fm_t_native        76  8.0    0.004    0.008   18.325   19.040
 calculate_dm_sparse                 75  7.0    0.023    0.030   18.369   19.031
 -------------------------------------------------------------------------------

 The number of warnings for this run is : 1
 
 -------------------------------------------------------------------------------
  **** **** ******  **  PROGRAM ENDED AT                 2023-11-26 21:16:26.548
 ***** ** ***  *** **   PROGRAM RAN ON                                     cu054
 **    ****   ******    PROGRAM RAN BY                                     jxzhu
 ***** **    ** ** **   PROGRAM PROCESS ID                                 17772
  **** **  *******  **  PROGRAM STOPPED IN /public/home/jxzhu/tmp_calc/af2075565
                                           805657d94fa4669dad6f4b174b0a4fb/calc/
                                           000600.000/pbc
