 DBCSR| CPU Multiplication driver                                           XSMM
 DBCSR| Multrec recursion limit                                              512
 DBCSR| Multiplication stack size                                           1000
 DBCSR| Maximum elements for images                                    UNLIMITED
 DBCSR| Multiplicative factor virtual images                                   1
 DBCSR| Use multiplication densification                                       T
 DBCSR| Multiplication size stacks                                             3
 DBCSR| Use memory pool for CPU allocation                                     F
 DBCSR| Number of 3D layers                                               SINGLE
 DBCSR| Use MPI memory allocation                                              F
 DBCSR| Use RMA algorithm                                                      F
 DBCSR| Use Communication thread                                               T
 DBCSR| Communication thread load                                             87
 DBCSR| MPI: My node id                                                        0
 DBCSR| MPI: Number of nodes                                                  32
 DBCSR| OMP: Current number of threads                                         1
 DBCSR| OMP: Max number of threads                                             1
 DBCSR| Split modifier for TAS multiplication algorithm                  1.0E+00


  **** **** ******  **  PROGRAM STARTED AT               2023-12-03 03:15:55.309
 ***** ** ***  *** **   PROGRAM STARTED ON                                 cu042
 **    ****   ******    PROGRAM STARTED BY                                 jxzhu
 ***** **    ** ** **   PROGRAM PROCESS ID                                 15069
  **** **  *******  **  PROGRAM STARTED IN /public/home/jxzhu/tmp_calc/04c0855f9
                                           8753fac23fde4df51ba20f3741a9e9a/calc/
                                           task.001.000022

 CP2K| version string:                                       CP2K version 2022.1
 CP2K| source code revision number:                                  git:2caeb6f
 CP2K| cp2kflags: omp libint fftw3 libxc elpa parallel mpi3 scalapack cosma xsmm
 CP2K|             plumed2 spglib mkl sirius libvori libbqb
 CP2K| is freely available from                            https://www.cp2k.org/
 CP2K| Program compiled at                           Mon Jul 3 17:37:06 CST 2023
 CP2K| Program compiled on                                                 mu003
 CP2K| Program compiled for                                                local
 CP2K| Data directory path                             /public/home/jxzhu/basis/
 CP2K| Input file name                                                 input.inp
 
 GLOBAL| Force Environment number                                              1
 GLOBAL| Basis set file name                                        BASIS_MOLOPT
 GLOBAL| Potential file name                                      GTH_POTENTIALS
 GLOBAL| MM Potential file name                                     MM_POTENTIAL
 GLOBAL| Coordinate file name                                          coord.xyz
 GLOBAL| Method name                                                        CP2K
 GLOBAL| Project name                                                       cp2k
 GLOBAL| Run type                                                   ENERGY_FORCE
 GLOBAL| FFT library                                                       FFTW3
 GLOBAL| Diagonalization library                                            ELPA
 GLOBAL| Minimum number of eigenvectors for ELPA usage                        16
 GLOBAL| Orthonormality check for eigenvectors                          DISABLED
 GLOBAL| Matrix multiplication library                                     COSMA
 GLOBAL| All-to-all communication in single precision                          F
 GLOBAL| FFTs using library dependent lengths                                  T
 GLOBAL| Grid backend                                                       AUTO
 GLOBAL| Global print level                                               MEDIUM
 GLOBAL| MPI I/O enabled                                                       T
 GLOBAL| Total number of message passing processes                            32
 GLOBAL| Number of threads for this process                                    1
 GLOBAL| This output is from process                                           0
 GLOBAL| Stack size for threads created by OpenMP (OMP_STACKSIZE)        default
 GLOBAL| CPU model name                 Intel(R) Xeon(R) Gold 6338 CPU @ 2.00GHz
 GLOBAL| CPUID                                                              1003

 MEMORY| system memory details [Kb]
 MEMORY|                        rank 0           min           max       average
 MEMORY| MemTotal            263619172     263619172     263619172     263619172
 MEMORY| MemFree             172174648     172174648     172174648     172174648
 MEMORY| Buffers                  3320          3320          3320          3320
 MEMORY| Cached                9058356       9058356       9058356       9058356
 MEMORY| Slab                  1944992       1944992       1944992       1944992
 MEMORY| SReclaimable           247636        247636        247636        247636
 MEMORY| MemLikelyFree       181483960     181483960     181483960     181483960


 *** Fundamental physical constants (SI units) ***

 *** Literature: B. J. Mohr and B. N. Taylor,
 ***             CODATA recommended values of the fundamental physical
 ***             constants: 2006, Web Version 5.1
 ***             http://physics.nist.gov/constants

 Speed of light in vacuum [m/s]                             2.99792458000000E+08
 Magnetic constant or permeability of vacuum [N/A**2]       1.25663706143592E-06
 Electric constant or permittivity of vacuum [F/m]          8.85418781762039E-12
 Planck constant (h) [J*s]                                  6.62606896000000E-34
 Planck constant (h-bar) [J*s]                              1.05457162825177E-34
 Elementary charge [C]                                      1.60217648700000E-19
 Electron mass [kg]                                         9.10938215000000E-31
 Electron g factor [ ]                                     -2.00231930436220E+00
 Proton mass [kg]                                           1.67262163700000E-27
 Fine-structure constant                                    7.29735253760000E-03
 Rydberg constant [1/m]                                     1.09737315685270E+07
 Avogadro constant [1/mol]                                  6.02214179000000E+23
 Boltzmann constant [J/K]                                   1.38065040000000E-23
 Atomic mass unit [kg]                                      1.66053878200000E-27
 Bohr radius [m]                                            5.29177208590000E-11

 *** Conversion factors ***

 [u] -> [a.u.]                                              1.82288848426455E+03
 [Angstrom] -> [Bohr] = [a.u.]                              1.88972613288564E+00
 [a.u.] = [Bohr] -> [Angstrom]                              5.29177208590000E-01
 [a.u.] -> [s]                                              2.41888432650478E-17
 [a.u.] -> [fs]                                             2.41888432650478E-02
 [a.u.] -> [J]                                              4.35974393937059E-18
 [a.u.] -> [N]                                              8.23872205491840E-08
 [a.u.] -> [K]                                              3.15774647902944E+05
 [a.u.] -> [kJ/mol]                                         2.62549961709828E+03
 [a.u.] -> [kcal/mol]                                       6.27509468713739E+02
 [a.u.] -> [Pa]                                             2.94210107994716E+13
 [a.u.] -> [bar]                                            2.94210107994716E+08
 [a.u.] -> [atm]                                            2.90362800883016E+08
 [a.u.] -> [eV]                                             2.72113838565563E+01
 [a.u.] -> [Hz]                                             6.57968392072181E+15
 [a.u.] -> [1/cm] (wave numbers)                            2.19474631370540E+05
 [a.u./Bohr**2] -> [1/cm]                                   5.14048714338585E+03
 

 CELL_TOP| Volume [angstrom^3]:                                     12686.086737
 CELL_TOP| Vector a [angstrom    16.869     0.000     0.000   |a| =    16.869000
 CELL_TOP| Vector b [angstrom    -8.434    14.609     0.000   |b| =    16.868929
 CELL_TOP| Vector c [angstrom     0.000     0.000    51.478   |c| =    51.477900
 CELL_TOP| Angle (b,c), alpha [degree]:                                90.000000
 CELL_TOP| Angle (a,c), beta  [degree]:                                90.000000
 CELL_TOP| Angle (a,b), gamma [degree]:                               120.000140
 CELL_TOP| Numerically orthorhombic:                                          NO
 
 GENERATE|  Preliminary Number of Bonds generated:                             0
 GENERATE|  Achieved consistency in connectivity generation.

 CELL| Volume [angstrom^3]:                                         12686.086737
 CELL| Vector a [angstrom]:      16.869     0.000     0.000   |a| =    16.869000
 CELL| Vector b [angstrom]:      -8.434    14.609     0.000   |b| =    16.868929
 CELL| Vector c [angstrom]:       0.000     0.000    51.478   |c| =    51.477900
 CELL| Angle (b,c), alpha [degree]:                                    90.000000
 CELL| Angle (a,c), beta  [degree]:                                    90.000000
 CELL| Angle (a,b), gamma [degree]:                                   120.000140
 CELL| Numerically orthorhombic:                                              NO

 CELL_REF| Volume [angstrom^3]:                                     12686.086737
 CELL_REF| Vector a [angstrom    16.869     0.000     0.000   |a| =    16.869000
 CELL_REF| Vector b [angstrom    -8.434    14.609     0.000   |b| =    16.868929
 CELL_REF| Vector c [angstrom     0.000     0.000    51.478   |c| =    51.477900
 CELL_REF| Angle (b,c), alpha [degree]:                                90.000000
 CELL_REF| Angle (a,c), beta  [degree]:                                90.000000
 CELL_REF| Angle (a,b), gamma [degree]:                               120.000140
 CELL_REF| Numerically orthorhombic:                                          NO

 *******************************************************************************
 *******************************************************************************
 **                                                                           **
 **     #####                         ##              ##                      **
 **    ##   ##            ##          ##              ##                      **
 **   ##     ##                       ##            ######                    **
 **   ##     ##  ##   ##  ##   #####  ##  ##   ####   ##    #####    #####    **
 **   ##     ##  ##   ##  ##  ##      ## ##   ##      ##   ##   ##  ##   ##   **
 **   ##  ## ##  ##   ##  ##  ##      ####     ###    ##   ######   ######    **
 **    ##  ###   ##   ##  ##  ##      ## ##      ##   ##   ##       ##        **
 **     #######   #####   ##   #####  ##  ##  ####    ##    #####   ##        **
 **           ##                                                    ##        **
 **                                                                           **
 **                                                ... make the atoms dance   **
 **                                                                           **
 **            Copyright (C) by CP2K developers group (2000-2022)             **
 **                      J. Chem. Phys. 152, 194103 (2020)                    **
 **                                                                           **
 *******************************************************************************

 DFT| Spin restricted Kohn-Sham (RKS) calculation                            RKS
 DFT| Multiplicity                                                             1
 DFT| Number of spin states                                                    1
 DFT| Charge                                                                   0
 DFT| Self-interaction correction (SIC)                                       NO
 DFT| Cutoffs: density                                              1.000000E-10
 DFT|          gradient                                             1.000000E-10
 DFT|          tau                                                  1.000000E-10
 DFT|          cutoff_smoothing_range                               0.000000E+00
 DFT| XC density smoothing                                                  NONE
 DFT| XC derivatives                                                          PW

 FUNCTIONAL| PBE:
 FUNCTIONAL| J.P.Perdew, K.Burke, M.Ernzerhof, Phys. Rev. Letter, vol. 77, n 18,
 FUNCTIONAL|  pp. 3865-3868, (1996){spin unpolarized}                           

 vdW POTENTIAL|                                                   Pair Potential
 vdW POTENTIAL|          DFT-D3 (Version 3.1)
 vdW POTENTIAL|          Potential Form: S. Grimme et al, JCP 132: 154104 (2010)
 vdW POTENTIAL|          Zero Damping
 vdW POTENTIAL|          Cutoff Radius [Bohr]:                             20.00
 vdW POTENTIAL|          s6 Scaling Factor:                               1.0000
 vdW POTENTIAL|          sr6 Scaling Factor:                              1.2170
 vdW POTENTIAL|          s8 Scaling Factor:                               0.7220
 vdW POTENTIAL|          Cutoff for CN calculation:                   0.1000E-05

 QS| Method:                                                                 GPW
 QS| Density plane wave grid type                        NON-SPHERICAL FULLSPACE
 QS| Number of grid levels:                                                    4
 QS| Density cutoff [a.u.]:                                                200.0
 QS| Multi grid cutoff [a.u.]: 1) grid level                               200.0
 QS|                           2) grid level                                66.7
 QS|                           3) grid level                                22.2
 QS|                           4) grid level                                 7.4
 QS| Grid level progression factor:                                          3.0
 QS| Relative density cutoff [a.u.]:                                        20.0
 QS| Interaction thresholds: eps_pgf_orb:                                3.2E-07
 QS|                         eps_filter_matrix:                          0.0E+00
 QS|                         eps_core_charge:                            1.0E-15
 QS|                         eps_rho_gspace:                             1.0E-13
 QS|                         eps_rho_rspace:                             1.0E-13
 QS|                         eps_gvg_rspace:                             3.2E-07
 QS|                         eps_ppl:                                    1.0E-02
 QS|                         eps_ppnl:                                   3.2E-09


 ATOMIC KIND INFORMATION

  1. Atomic kind: Pt                                    Number of atoms:     216

     Orbital Basis Set                      DZVP-A5-Q10-323-MOL-T1-DERIVED_SET-1

       Number of orbital shell sets:                                           1
       Number of orbital shells:                                               6
       Number of primitive Cartesian functions:                                5
       Number of Cartesian basis functions:                                   23
       Number of spherical basis functions:                                   20
       Norm type:                                                              2

       Normalised Cartesian orbitals:

                        Set   Shell   Orbital            Exponent    Coefficient

                          1       1    2s                2.521825       0.177473
                                                         1.453920      -0.063399
                                                         0.614053      -0.407089
                                                         0.232656       0.262254
                                                         0.074788       0.047371

                          1       2    3s                2.521825      -0.049056
                                                         1.453920       0.044904
                                                         0.614053      -0.009756
                                                         0.232656      -0.144709
                                                         0.074788       0.144085

                          1       3    3px               2.521825      -0.317572
                                                         1.453920       0.534826
                                                         0.614053      -0.489458
                                                         0.232656       0.245631
                                                         0.074788       0.018221
                          1       3    3py               2.521825      -0.317572
                                                         1.453920       0.534826
                                                         0.614053      -0.489458
                                                         0.232656       0.245631
                                                         0.074788       0.018221
                          1       3    3pz               2.521825      -0.317572
                                                         1.453920       0.534826
                                                         0.614053      -0.489458
                                                         0.232656       0.245631
                                                         0.074788       0.018221

                          1       4    4dx2              2.521825       3.008522
                                                         1.453920      -1.224251
                                                         0.614053       0.225691
                                                         0.232656       0.125144
                                                         0.074788      -0.015348
                          1       4    4dxy              2.521825       5.210912
                                                         1.453920      -2.120465
                                                         0.614053       0.390909
                                                         0.232656       0.216756
                                                         0.074788      -0.026584
                          1       4    4dxz              2.521825       5.210912
                                                         1.453920      -2.120465
                                                         0.614053       0.390909
                                                         0.232656       0.216756
                                                         0.074788      -0.026584
                          1       4    4dy2              2.521825       3.008522
                                                         1.453920      -1.224251
                                                         0.614053       0.225691
                                                         0.232656       0.125144
                                                         0.074788      -0.015348
                          1       4    4dyz              2.521825       5.210912
                                                         1.453920      -2.120465
                                                         0.614053       0.390909
                                                         0.232656       0.216756
                                                         0.074788      -0.026584
                          1       4    4dz2              2.521825       3.008522
                                                         1.453920      -1.224251
                                                         0.614053       0.225691
                                                         0.232656       0.125144
                                                         0.074788      -0.015348

                          1       5    5dx2              2.521825       0.698026
                                                         1.453920      -1.511486
                                                         0.614053      -0.335394
                                                         0.232656      -0.025564
                                                         0.074788      -0.002699
                          1       5    5dxy              2.521825       1.209017
                                                         1.453920      -2.617970
                                                         0.614053      -0.580920
                                                         0.232656      -0.044277
                                                         0.074788      -0.004674
                          1       5    5dxz              2.521825       1.209017
                                                         1.453920      -2.617970
                                                         0.614053      -0.580920
                                                         0.232656      -0.044277
                                                         0.074788      -0.004674
                          1       5    5dy2              2.521825       0.698026
                                                         1.453920      -1.511486
                                                         0.614053      -0.335394
                                                         0.232656      -0.025564
                                                         0.074788      -0.002699
                          1       5    5dyz              2.521825       1.209017
                                                         1.453920      -2.617970
                                                         0.614053      -0.580920
                                                         0.232656      -0.044277
                                                         0.074788      -0.004674
                          1       5    5dz2              2.521825       0.698026
                                                         1.453920      -1.511486
                                                         0.614053      -0.335394
                                                         0.232656      -0.025564
                                                         0.074788      -0.002699

                          1       6    6dx2              2.521825       0.831079
                                                         1.453920      -0.709226
                                                         0.614053      -0.137351
                                                         0.232656       0.068642
                                                         0.074788       0.011745
                          1       6    6dxy              2.521825       1.439472
                                                         1.453920      -1.228415
                                                         0.614053      -0.237899
                                                         0.232656       0.118891
                                                         0.074788       0.020343
                          1       6    6dxz              2.521825       1.439472
                                                         1.453920      -1.228415
                                                         0.614053      -0.237899
                                                         0.232656       0.118891
                                                         0.074788       0.020343
                          1       6    6dy2              2.521825       0.831079
                                                         1.453920      -0.709226
                                                         0.614053      -0.137351
                                                         0.232656       0.068642
                                                         0.074788       0.011745
                          1       6    6dyz              2.521825       1.439472
                                                         1.453920      -1.228415
                                                         0.614053      -0.237899
                                                         0.232656       0.118891
                                                         0.074788       0.020343
                          1       6    6dz2              2.521825       0.831079
                                                         1.453920      -0.709226
                                                         0.614053      -0.137351
                                                         0.232656       0.068642
                                                         0.074788       0.011745

       Atomic covalent radius [Angstrom]:                                  1.300

       Atomic van der Waals radius [Angstrom]:                             1.750

     GTH Potential information for                                   GTH-PBE-q10

       Description:                       Goedecker-Teter-Hutter pseudopotential
                                           Goedecker et al., PRB 54, 1703 (1996)
                                          Hartwigsen et al., PRB 58, 3641 (1998)
                                                      Krack, TCA 114, 145 (2005)

       Gaussian exponent of the core charge distribution:               1.317676
       Electronic configuration (s p d ...):                           1   0   9

       Parameters of the local part of the GTH pseudopotential:

                          rloc        C1          C2          C3          C4
                        0.616000   11.313635

       Parameters of the non-local part of the GTH pseudopotential:

                   l      r(l)      h(i,j,l)

                   0    0.550904    4.733491   -1.784594
                                   -1.784594    2.303901
                   1    0.674138    2.534798   -1.778066
                                   -1.778066    2.103836
                   2    0.457392   -7.264011    2.558665
                                    2.558665   -2.901253


 MOLECULE KIND INFORMATION


 All atoms are their own molecule, skipping detailed information


 TOTAL NUMBERS AND MAXIMUM NUMBERS

  Total number of            - Atomic kinds:                                   1
                             - Atoms:                                        216
                             - Shell sets:                                   216
                             - Shells:                                      1296
                             - Primitive Cartesian functions:               1080
                             - Cartesian basis functions:                   4968
                             - Spherical basis functions:                   4320

  Maximum angular momentum of- Orbital basis functions:                        2
                             - Local part of the GTH pseudopotential:          0
                             - Non-local part of the GTH pseudopotential:      4


 MODULE QUICKSTEP:  ATOMIC COORDINATES IN angstrom

 Atom  Kind  Element       X           Y           Z          Z(eff)       Mass
    1   1 Pt  78       2.059840    0.414470   19.909932      10.0000    195.0840
    2   1 Pt  78       4.869840    0.404470   19.749936      10.0000    195.0840
    3   1 Pt  78       7.679840    0.334470   19.769932      10.0000    195.0840
    4   1 Pt  78      10.609840    0.364470   20.049935      10.0000    195.0840
    5   1 Pt  78      13.409840    0.334470   20.069932      10.0000    195.0840
    6   1 Pt  78      16.109840    0.344470   20.009930      10.0000    195.0840
    7   1 Pt  78       3.449840    2.854470   19.769932      10.0000    195.0840
    8   1 Pt  78       6.299840    2.844470   19.979935      10.0000    195.0840
    9   1 Pt  78       9.129841    2.674470   20.019932      10.0000    195.0840
   10   1 Pt  78      11.979840    2.884470   20.049935      10.0000    195.0840
   11   1 Pt  78      14.859840    2.894470   19.869931      10.0000    195.0840
   12   1 Pt  78       0.699840    2.854470   19.979935      10.0000    195.0840
   13   1 Pt  78       4.949840    5.234470   19.889935      10.0000    195.0840
   14   1 Pt  78       7.779840    5.184470   20.029935      10.0000    195.0840
   15   1 Pt  78      10.479841    5.204471   20.109933      10.0000    195.0840
   16   1 Pt  78      13.149840    5.334470   19.819935      10.0000    195.0840
   17   1 Pt  78      -0.760160    5.324470   19.899933      10.0000    195.0840
   18   1 Pt  78       2.059840    5.304470   19.979935      10.0000    195.0840
   19   1 Pt  78       6.359841    7.644470   19.939931      10.0000    195.0840
   20   1 Pt  78       9.059840    7.694471   19.949933      10.0000    195.0840
   21   1 Pt  78      11.929840    7.724470   19.829934      10.0000    195.0840
   22   1 Pt  78      -2.120160    7.634470   19.809933      10.0000    195.0840
   23   1 Pt  78       0.629840    7.694471   19.899933      10.0000    195.0840
   24   1 Pt  78       3.649840    7.804471   19.959935      10.0000    195.0840
   25   1 Pt  78       7.709840   10.034470   19.819935      10.0000    195.0840
   26   1 Pt  78      10.439840   10.184470   19.749936      10.0000    195.0840
   27   1 Pt  78      -3.470160   10.224471   19.829934      10.0000    195.0840
   28   1 Pt  78      -0.690160   10.114470   19.949933      10.0000    195.0840
   29   1 Pt  78       2.099840   10.094471   20.039933      10.0000    195.0840
   30   1 Pt  78       4.969840   10.144471   19.799931      10.0000    195.0840
   31   1 Pt  78       9.009841   12.534470   19.849934      10.0000    195.0840
   32   1 Pt  78      -5.030160   12.664471   19.829934      10.0000    195.0840
   33   1 Pt  78      -2.090160   12.614470   19.789933      10.0000    195.0840
   34   1 Pt  78       0.829840   12.504471   19.859933      10.0000    195.0840
   35   1 Pt  78       3.619840   12.584471   19.859933      10.0000    195.0840
   36   1 Pt  78       6.239840   12.454471   19.949933      10.0000    195.0840
   37   1 Pt  78       0.699840    1.294470   22.299931      10.0000    195.0840
   38   1 Pt  78       3.569840    1.174470   22.169934      10.0000    195.0840
   39   1 Pt  78       6.409840    1.134470   22.189934      10.0000    195.0840
   40   1 Pt  78       9.099840    1.014470   22.239934      10.0000    195.0840
   41   1 Pt  78      11.979840    1.164470   22.339932      10.0000    195.0840
   42   1 Pt  78      14.789840    1.344470   22.279931      10.0000    195.0840
   43   1 Pt  78       2.229840    3.654470   22.259934      10.0000    195.0840
   44   1 Pt  78       5.059840    3.654470   22.199933      10.0000    195.0840
   45   1 Pt  78       7.819840    3.624470   22.369931      10.0000    195.0840
   46   1 Pt  78      10.539840    3.524470   22.399933      10.0000    195.0840
   47   1 Pt  78      13.379841    3.724470   22.349934      10.0000    195.0840
   48   1 Pt  78      -0.630160    3.734470   22.169934      10.0000    195.0840
   49   1 Pt  78       3.589840    6.034470   22.239934      10.0000    195.0840
   50   1 Pt  78       6.309840    6.114470   22.229931      10.0000    195.0840
   51   1 Pt  78       9.199840    5.934470   22.299931      10.0000    195.0840
   52   1 Pt  78      12.019841    6.064470   22.239934      10.0000    195.0840
   53   1 Pt  78      -2.120160    6.104470   22.219933      10.0000    195.0840
   54   1 Pt  78       0.829840    6.184471   22.339932      10.0000    195.0840
   55   1 Pt  78       4.939840    8.474470   22.339932      10.0000    195.0840
   56   1 Pt  78       7.749840    8.474470   22.199933      10.0000    195.0840
   57   1 Pt  78      10.619840    8.474470   22.169934      10.0000    195.0840
   58   1 Pt  78      -3.450160    8.614470   22.059933      10.0000    195.0840
   59   1 Pt  78      -0.740160    8.514470   22.279931      10.0000    195.0840
   60   1 Pt  78       2.189840    8.484470   22.289933      10.0000    195.0840
   61   1 Pt  78       6.369840   10.944470   22.219933      10.0000    195.0840
   62   1 Pt  78       9.079840   10.954471   22.149933      10.0000    195.0840
   63   1 Pt  78      -4.920161   11.004471   22.079934      10.0000    195.0840
   64   1 Pt  78      -2.060160   11.074470   22.319935      10.0000    195.0840
   65   1 Pt  78       0.719840   10.864471   22.359933      10.0000    195.0840
   66   1 Pt  78       3.569840   10.904470   22.249936      10.0000    195.0840
   67   1 Pt  78       7.759840   13.464471   22.259934      10.0000    195.0840
   68   1 Pt  78      -6.360160   13.304471   22.129933      10.0000    195.0840
   69   1 Pt  78      -3.410160   13.484470   22.129933      10.0000    195.0840
   70   1 Pt  78      -0.610160   13.314471   22.179932      10.0000    195.0840
   71   1 Pt  78       2.099840   13.254471   22.359933      10.0000    195.0840
   72   1 Pt  78       4.949840   13.274470   22.259934      10.0000    195.0840
   73   1 Pt  78      -7.730160   14.144470   24.579934      10.0000    195.0840
   74   1 Pt  78      -4.930160   14.204471   24.439934      10.0000    195.0840
   75   1 Pt  78      -2.100160   14.084472   24.539933      10.0000    195.0840
   76   1 Pt  78       0.659840   14.044471   24.599934      10.0000    195.0840
   77   1 Pt  78       3.499840   14.134472   24.609933      10.0000    195.0840
   78   1 Pt  78       6.259840   14.194470   24.609933      10.0000    195.0840
   79   1 Pt  78       2.139840    2.014470   24.509934      10.0000    195.0840
   80   1 Pt  78       4.959840    2.034470   24.579934      10.0000    195.0840
   81   1 Pt  78       7.749840    2.004470   24.689931      10.0000    195.0840
   82   1 Pt  78      10.539840    1.854470   24.619931      10.0000    195.0840
   83   1 Pt  78      13.479840    2.014470   24.659932      10.0000    195.0840
   84   1 Pt  78      -0.750160    1.994470   24.559933      10.0000    195.0840
   85   1 Pt  78       3.599840    4.454471   24.549931      10.0000    195.0840
   86   1 Pt  78       6.379840    4.444470   24.619931      10.0000    195.0840
   87   1 Pt  78       9.249840    4.444470   24.639935      10.0000    195.0840
   88   1 Pt  78      11.899840    4.374470   24.589932      10.0000    195.0840
   89   1 Pt  78      -2.080160    4.384470   24.579934      10.0000    195.0840
   90   1 Pt  78       0.739840    4.334470   24.529935      10.0000    195.0840
   91   1 Pt  78       4.909840    6.864471   24.599934      10.0000    195.0840
   92   1 Pt  78       7.739841    6.824470   24.529935      10.0000    195.0840
   93   1 Pt  78      10.559841    7.004471   24.499936      10.0000    195.0840
   94   1 Pt  78      -3.540161    6.854470   24.479931      10.0000    195.0840
   95   1 Pt  78      -0.660160    6.874471   24.589932      10.0000    195.0840
   96   1 Pt  78       2.099840    6.874471   24.569935      10.0000    195.0840
   97   1 Pt  78       6.309840    9.334471   24.609933      10.0000    195.0840
   98   1 Pt  78       9.199840    9.314471   24.469933      10.0000    195.0840
   99   1 Pt  78      -4.850160    9.364470   24.389935      10.0000    195.0840
  100   1 Pt  78      -2.100160    9.214470   24.529935      10.0000    195.0840
  101   1 Pt  78       0.789840    9.194470   24.599934      10.0000    195.0840
  102   1 Pt  78       3.589840    9.304470   24.639935      10.0000    195.0840
  103   1 Pt  78       7.709840   11.734471   24.599934      10.0000    195.0840
  104   1 Pt  78      -6.380161   11.664471   24.399933      10.0000    195.0840
  105   1 Pt  78      -3.550160   11.714470   24.549931      10.0000    195.0840
  106   1 Pt  78      -0.700160   11.564470   24.589932      10.0000    195.0840
  107   1 Pt  78       2.139840   11.664471   24.639935      10.0000    195.0840
  108   1 Pt  78       4.839840   11.764470   24.599934      10.0000    195.0840
  109   1 Pt  78       2.139840    0.344470   26.827931      10.0000    195.0840
  110   1 Pt  78       4.919840    0.324470   26.787932      10.0000    195.0840
  111   1 Pt  78       7.699840    0.324470   26.887932      10.0000    195.0840
  112   1 Pt  78      10.409840    0.284470   26.967931      10.0000    195.0840
  113   1 Pt  78      13.269841    0.294470   26.937932      10.0000    195.0840
  114   1 Pt  78      16.059840    0.324470   26.967931      10.0000    195.0840
  115   1 Pt  78       3.549840    2.774470   26.797932      10.0000    195.0840
  116   1 Pt  78       6.259840    2.854470   26.887932      10.0000    195.0840
  117   1 Pt  78       9.019840    2.834470   26.927932      10.0000    195.0840
  118   1 Pt  78      11.889841    2.724470   26.927932      10.0000    195.0840
  119   1 Pt  78      14.669840    2.764470   26.957931      10.0000    195.0840
  120   1 Pt  78       0.609840    2.674470   26.897932      10.0000    195.0840
  121   1 Pt  78       4.889840    5.204471   26.867932      10.0000    195.0840
  122   1 Pt  78       7.589840    5.264470   26.857931      10.0000    195.0840
  123   1 Pt  78      10.419840    5.254471   26.917932      10.0000    195.0840
  124   1 Pt  78      13.239841    5.194470   26.847932      10.0000    195.0840
  125   1 Pt  78      -0.750160    5.144470   26.917932      10.0000    195.0840
  126   1 Pt  78       2.149840    5.154470   26.767932      10.0000    195.0840
  127   1 Pt  78       6.289840    7.724470   26.877932      10.0000    195.0840
  128   1 Pt  78       9.049841    7.734470   26.897932      10.0000    195.0840
  129   1 Pt  78      11.909840    7.664471   26.827931      10.0000    195.0840
  130   1 Pt  78      -2.140160    7.514471   26.867932      10.0000    195.0840
  131   1 Pt  78       0.679840    7.574470   26.917932      10.0000    195.0840
  132   1 Pt  78       3.519840    7.674471   26.867932      10.0000    195.0840
  133   1 Pt  78       7.709840   10.174471   26.827931      10.0000    195.0840
  134   1 Pt  78      10.529840   10.074471   26.817932      10.0000    195.0840
  135   1 Pt  78      -3.470160   10.054470   26.777932      10.0000    195.0840
  136   1 Pt  78      -0.730160    9.994470   26.957931      10.0000    195.0840
  137   1 Pt  78       2.019840   10.054470   27.057931      10.0000    195.0840
  138   1 Pt  78       4.859840   10.124472   26.887932      10.0000    195.0840
  139   1 Pt  78       9.079840   12.594471   26.857931      10.0000    195.0840
  140   1 Pt  78      -5.010160   12.434471   26.677932      10.0000    195.0840
  141   1 Pt  78      -2.200160   12.404470   26.957931      10.0000    195.0840
  142   1 Pt  78       0.569840   12.394471   26.987932      10.0000    195.0840
  143   1 Pt  78       3.349840   12.564470   26.987932      10.0000    195.0840
  144   1 Pt  78       6.219841   12.534470   27.007932      10.0000    195.0840
  145   1 Pt  78       0.639840    1.224470   29.207932      10.0000    195.0840
  146   1 Pt  78       3.519840    1.224470   29.107932      10.0000    195.0840
  147   1 Pt  78       6.309840    1.264470   29.167932      10.0000    195.0840
  148   1 Pt  78       9.089841    1.234470   29.177932      10.0000    195.0840
  149   1 Pt  78      11.969841    1.134470   29.197931      10.0000    195.0840
  150   1 Pt  78      14.689840    1.044470   29.287932      10.0000    195.0840
  151   1 Pt  78       2.099840    3.534470   29.057932      10.0000    195.0840
  152   1 Pt  78       4.849840    3.614470   29.147932      10.0000    195.0840
  153   1 Pt  78       7.679840    3.684470   29.117932      10.0000    195.0840
  154   1 Pt  78      10.569840    3.544470   29.147932      10.0000    195.0840
  155   1 Pt  78      13.249839    3.454470   29.237932      10.0000    195.0840
  156   1 Pt  78      -0.830160    3.574470   29.057932      10.0000    195.0840
  157   1 Pt  78       3.419840    6.074470   29.177932      10.0000    195.0840
  158   1 Pt  78       6.159840    6.204471   29.267931      10.0000    195.0840
  159   1 Pt  78       8.959840    6.164470   29.187932      10.0000    195.0840
  160   1 Pt  78      11.889841    5.954471   29.157932      10.0000    195.0840
  161   1 Pt  78      -2.210160    5.974470   29.217932      10.0000    195.0840
  162   1 Pt  78       0.639840    5.874471   29.177932      10.0000    195.0840
  163   1 Pt  78       4.859840    8.564470   29.337932      10.0000    195.0840
  164   1 Pt  78       7.699840    8.504471   29.147932      10.0000    195.0840
  165   1 Pt  78      10.499840    8.474470   29.087932      10.0000    195.0840
  166   1 Pt  78      -3.470160    8.354471   29.087932      10.0000    195.0840
  167   1 Pt  78      -0.700160    8.364470   29.217932      10.0000    195.0840
  168   1 Pt  78       2.019840    8.494470   29.237932      10.0000    195.0840
  169   1 Pt  78       6.269840   10.884471   29.267931      10.0000    195.0840
  170   1 Pt  78       8.989840   10.934471   29.067932      10.0000    195.0840
  171   1 Pt  78      -4.950160   10.914471   29.057932      10.0000    195.0840
  172   1 Pt  78      -2.170160   10.944470   29.167932      10.0000    195.0840
  173   1 Pt  78       0.609840   11.014471   29.237932      10.0000    195.0840
  174   1 Pt  78       3.439840   10.814471   29.277932      10.0000    195.0840
  175   1 Pt  78       7.659840   13.384471   29.247931      10.0000    195.0840
  176   1 Pt  78      -6.360160   13.364471   29.147932      10.0000    195.0840
  177   1 Pt  78      -3.460160   13.324470   29.087932      10.0000    195.0840
  178   1 Pt  78      -0.710160   13.454471   29.137932      10.0000    195.0840
  179   1 Pt  78       2.129840   13.384471   29.307932      10.0000    195.0840
  180   1 Pt  78       4.919840   13.224470   29.337932      10.0000    195.0840
  181   1 Pt  78      -7.650160   14.004471   31.627932      10.0000    195.0840
  182   1 Pt  78      -4.900161   14.244470   31.427932      10.0000    195.0840
  183   1 Pt  78      -2.040160   14.164471   31.477932      10.0000    195.0840
  184   1 Pt  78       0.699840   14.274471   31.677932      10.0000    195.0840
  185   1 Pt  78       3.579840   14.324470   31.517932      10.0000    195.0840
  186   1 Pt  78       6.409840   14.154471   31.677932      10.0000    195.0840
  187   1 Pt  78       2.109840    1.814470   31.497932      10.0000    195.0840
  188   1 Pt  78       4.949840    2.054470   31.427932      10.0000    195.0840
  189   1 Pt  78       7.769840    2.064470   31.427932      10.0000    195.0840
  190   1 Pt  78      10.489840    1.994470   31.717932      10.0000    195.0840
  191   1 Pt  78      13.419840    2.054470   31.697932      10.0000    195.0840
  192   1 Pt  78      -0.620160    1.844470   31.507932      10.0000    195.0840
  193   1 Pt  78       3.399840    4.334470   31.567932      10.0000    195.0840
  194   1 Pt  78       6.199840    4.494470   31.557932      10.0000    195.0840
  195   1 Pt  78       9.129841    4.344470   31.407932      10.0000    195.0840
  196   1 Pt  78      11.879841    4.284470   31.567932      10.0000    195.0840
  197   1 Pt  78      -2.160160    4.484470   31.417932      10.0000    195.0840
  198   1 Pt  78       0.689840    4.264470   31.407932      10.0000    195.0840
  199   1 Pt  78       4.619840    6.804470   31.597932      10.0000    195.0840
  200   1 Pt  78       7.769840    6.814470   31.387932      10.0000    195.0840
  201   1 Pt  78      10.559841    6.784470   31.447931      10.0000    195.0840
  202   1 Pt  78      -3.550160    6.734471   31.457932      10.0000    195.0840
  203   1 Pt  78      -0.780160    6.834471   31.727932      10.0000    195.0840
  204   1 Pt  78       1.949840    6.704471   31.637932      10.0000    195.0840
  205   1 Pt  78       6.179840    9.224471   31.667932      10.0000    195.0840
  206   1 Pt  78       9.109840    9.164471   31.387932      10.0000    195.0840
  207   1 Pt  78      -4.840160    9.224471   31.337932      10.0000    195.0840
  208   1 Pt  78      -2.130160    9.294471   31.457932      10.0000    195.0840
  209   1 Pt  78       0.549840    9.294471   31.547932      10.0000    195.0840
  210   1 Pt  78       3.329840    9.344471   31.647932      10.0000    195.0840
  211   1 Pt  78       7.709840   11.704471   31.517932      10.0000    195.0840
  212   1 Pt  78      -6.330160   11.654471   31.407932      10.0000    195.0840
  213   1 Pt  78      -3.500160   11.704471   31.337932      10.0000    195.0840
  214   1 Pt  78      -0.580160   11.874471   31.617932      10.0000    195.0840
  215   1 Pt  78       2.099840   11.864470   31.537931      10.0000    195.0840
  216   1 Pt  78       4.839840   11.864470   31.697932      10.0000    195.0840




 SCF PARAMETERS         Density guess:                                   RESTART
                        --------------------------------------------------------
                        max_scf:                                             500
                        max_scf_history:                                       0
                        max_diis:                                              4
                        --------------------------------------------------------
                        eps_scf:                                        1.00E-06
                        eps_scf_history:                                0.00E+00
                        eps_diis:                                       1.00E-01
                        eps_eigval:                                     1.00E-05
                        --------------------------------------------------------
                        level_shift [a.u.]:                             0.000000
                        added MOs                                       500    0
                        --------------------------------------------------------
                        Mixing method:                            BROYDEN_MIXING
                                                charge density mixing in g-space
                        --------------------------------------------------------
                        Smear method:                                FERMI_DIRAC
                        Electronic temperature [K]:                        300.0
                        Electronic temperature [a.u.]:                  9.50E-04
                        Accuracy threshold:                             1.00E-10
                        --------------------------------------------------------
                        No outer SCF

 PW_GRID| Information for grid number                                          1
 PW_GRID| Grid distributed over                                    32 processors
 PW_GRID| Real space group dimensions                                    32    1
 PW_GRID| the grid is blocked:                                                NO
 PW_GRID| Cutoff [a.u.]                                                    200.0
 PW_GRID| spherical cutoff:                                                   NO
 PW_GRID|   Bounds   1           -105     104                Points:         210
 PW_GRID|   Bounds   2           -105     104                Points:         210
 PW_GRID|   Bounds   3           -315     314                Points:         630
 PW_GRID| Volume element (a.u.^3)  0.3081E-02     Volume (a.u.^3)     85609.9578
 PW_GRID| Grid span                                                    FULLSPACE
 PW_GRID|   Distribution                         Average         Max         Min
 PW_GRID|   G-Vectors                           868218.8      868350      868140
 PW_GRID|   G-Rays                                4134.4        4135        4134
 PW_GRID|   Real Space Points                   868218.8      926100      793800

 PW_GRID| Information for grid number                                          2
 PW_GRID| Number of the reference grid                                         1
 PW_GRID| Grid distributed over                                    32 processors
 PW_GRID| Real space group dimensions                                    32    1
 PW_GRID| the grid is blocked:                                                NO
 PW_GRID| Cutoff [a.u.]                                                     66.7
 PW_GRID| spherical cutoff:                                                   NO
 PW_GRID|   Bounds   1            -60      59                Points:         120
 PW_GRID|   Bounds   2            -60      59                Points:         120
 PW_GRID|   Bounds   3           -180     179                Points:         360
 PW_GRID| Volume element (a.u.^3)  0.1651E-01     Volume (a.u.^3)     85609.9578
 PW_GRID| Grid span                                                    FULLSPACE
 PW_GRID|   Distribution                         Average         Max         Min
 PW_GRID|   G-Vectors                           162000.0      162840      161280
 PW_GRID|   G-Rays                                1350.0        1357        1344
 PW_GRID|   Real Space Points                   162000.0      172800      129600

 PW_GRID| Information for grid number                                          3
 PW_GRID| Number of the reference grid                                         1
 PW_GRID| Grid distributed over                                    32 processors
 PW_GRID| Real space group dimensions                                    32    1
 PW_GRID| the grid is blocked:                                                NO
 PW_GRID| Cutoff [a.u.]                                                     22.2
 PW_GRID| spherical cutoff:                                                   NO
 PW_GRID|   Bounds   1            -35      34                Points:          70
 PW_GRID|   Bounds   2            -35      34                Points:          70
 PW_GRID|   Bounds   3           -105     104                Points:         210
 PW_GRID| Volume element (a.u.^3)  0.8320E-01     Volume (a.u.^3)     85609.9578
 PW_GRID| Grid span                                                    FULLSPACE
 PW_GRID|   Distribution                         Average         Max         Min
 PW_GRID|   G-Vectors                            32156.2       32340       31990
 PW_GRID|   G-Rays                                 459.4         462         457
 PW_GRID|   Real Space Points                    32156.2       44100       29400

 PW_GRID| Information for grid number                                          4
 PW_GRID| Number of the reference grid                                         1
 PW_GRID| Grid distributed over                                    32 processors
 PW_GRID| Real space group dimensions                                    32    1
 PW_GRID| the grid is blocked:                                                NO
 PW_GRID| Cutoff [a.u.]                                                      7.4
 PW_GRID| spherical cutoff:                                                   NO
 PW_GRID|   Bounds   1            -20      19                Points:          40
 PW_GRID|   Bounds   2            -20      19                Points:          40
 PW_GRID|   Bounds   3            -60      59                Points:         120
 PW_GRID| Volume element (a.u.^3)  0.4459         Volume (a.u.^3)     85609.9578
 PW_GRID| Grid span                                                    FULLSPACE
 PW_GRID|   Distribution                         Average         Max         Min
 PW_GRID|   G-Vectors                             6000.0        6120        5920
 PW_GRID|   G-Rays                                 150.0         153         148
 PW_GRID|   Real Space Points                     6000.0        9600        4800

 POISSON| Solver                                          IMPLICIT (GENERALIZED)
 POISSON| Boundary Condition                                PERIODIC & DIRICHLET
 POISSON| Maximum number of iterations                                        30
 POISSON| Convergence threshold                                         1.00E-08
 POISSON| Dielectric Constant                                              80.00
 POISSON| Relaxation parameter                                          1.00E+00

 RS_GRID| Information for grid number                                          1
 RS_GRID|   Bounds   1           -105     104                Points:         210
 RS_GRID|   Bounds   2           -105     104                Points:         210
 RS_GRID|   Bounds   3           -315     314                Points:         630
 RS_GRID| Real space distribution over                                 32 groups
 RS_GRID| Real space distribution along direction                              3
 RS_GRID| Border size                                                         54
 RS_GRID|   Distribution                         Average         Max         Min
 RS_GRID|   Planes                                 127.7         128         127

 RS_GRID| Information for grid number                                          2
 RS_GRID|   Bounds   1            -60      59                Points:         120
 RS_GRID|   Bounds   2            -60      59                Points:         120
 RS_GRID|   Bounds   3           -180     179                Points:         360
 RS_GRID| Real space distribution over                                 32 groups
 RS_GRID| Real space distribution along direction                              3
 RS_GRID| Border size                                                         36
 RS_GRID|   Distribution                         Average         Max         Min
 RS_GRID|   Planes                                  83.2          84          83

 RS_GRID| Information for grid number                                          3
 RS_GRID|   Bounds   1            -35      34                Points:          70
 RS_GRID|   Bounds   2            -35      34                Points:          70
 RS_GRID|   Bounds   3           -105     104                Points:         210
 RS_GRID| Real space fully replicated
 RS_GRID| Group size                                                           1

 RS_GRID| Information for grid number                                          4
 RS_GRID|   Bounds   1            -20      19                Points:          40
 RS_GRID|   Bounds   2            -20      19                Points:          40
 RS_GRID|   Bounds   3            -60      59                Points:         120
 RS_GRID| Real space fully replicated
 RS_GRID| Group size                                                           1

 Number of electrons:                                                       2160
 Number of occupied orbitals:                                               1080
 Number of molecular orbitals:                                              1580

 Number of orbital functions:                                               4320
 Number of independent orbital functions:                                   4320

 Extrapolation method: initial_guess


 SCF WAVEFUNCTION OPTIMIZATION

  Step     Update method      Time    Convergence         Total energy    Change
  ------------------------------------------------------------------------------

  POISSON| IMPLICIT (GENERALIZED) SOLVER ---------------------------------------
  POISSON| Preparing Dirichlet regions ...
  POISSON| Dirichlet region    1
  POISSON|     type : axis-aligned planar
  POISSON|     applied potential :   0.0000E+00  [Eh/e]
  POISSON| Dirichlet region    2
  POISSON|     type : axis-aligned planar
  POISSON|     applied potential :   0.0000E+00  [Eh/e]
  POISSON| ... Done. 
  ------------------------------------------------------------------------------

  POISSON|   iter        pres error      nabs error        E_hartree    delta E
  POISSON|      1        0.3648E-05      0.3303E-01    1992.1161049172  0.20E+04
  POISSON|      2        0.1169E-14      0.3648E-05    1992.1161049173  0.23E-10
  POISSON| Poisson solver converged in 2 iterations.
     1 NoMix/Diag. 0.30E+00   11.1     0.19515636     -5670.8462678175 -5.67E+03
  POISSON|   iter        pres error      nabs error        E_hartree    delta E
  POISSON|      1        0.8029E-05      0.3281E-01    1992.0044064279 -0.11E+00
  POISSON|      2        0.1379E-14      0.8029E-05    1992.0044064279  0.23E-10
  POISSON| Poisson solver converged in 2 iterations.
     2 Broy./Diag. 0.30E+00   13.2     0.23971967     -5670.8601062710 -1.38E-02
  POISSON|   iter        pres error      nabs error        E_hartree    delta E
  POISSON|      1        0.1627E-04      0.2966E-03    1992.2087593996  0.20E+00
  POISSON|      2        0.1605E-16      0.1627E-04    1992.2087593996  0.11E-11
  POISSON| Poisson solver converged in 2 iterations.
     3 Broy./Diag. 0.30E+00   13.3     0.09779287     -5675.9274222628 -5.07E+00
  POISSON|   iter        pres error      nabs error        E_hartree    delta E
  POISSON|      1        0.5697E-04      0.2340E-03    1992.3197963445  0.11E+00
  POISSON|      2        0.2773E-17      0.5697E-04    1992.3197963445  0.23E-12
  POISSON| Poisson solver converged in 2 iterations.
     4 Broy./Diag. 0.30E+00   13.2     0.10839806     -5673.1305039208  2.80E+00
  POISSON|   iter        pres error      nabs error        E_hartree    delta E
  POISSON|      1        0.6897E-04      0.2766E-03    1992.3759050336  0.56E-01
  POISSON|      2        0.4100E-17      0.6897E-04    1992.3759050336  0.00E+00
  POISSON| Poisson solver converged in 2 iterations.
     5 Broy./Diag. 0.30E+00   13.3     0.11931488     -5671.7652795176  1.37E+00
  POISSON|   iter        pres error      nabs error        E_hartree    delta E
  POISSON|      1        0.1776E-04      0.8632E-04    1992.4898192322  0.11E+00
  POISSON|      2        0.2336E-17      0.1776E-04    1992.4898192322  0.68E-12
  POISSON| Poisson solver converged in 2 iterations.
     6 Broy./Diag. 0.30E+00   13.3     0.05299118     -5672.4347567440 -6.69E-01
  POISSON|   iter        pres error      nabs error        E_hartree    delta E
  POISSON|      1        0.3674E-06      0.3521E-04    1992.5835087555  0.94E-01
  POISSON|      2        0.5259E-19      0.3674E-06    1992.5835087555  0.23E-12
  POISSON| Poisson solver converged in 2 iterations.
     7 Broy./Diag. 0.30E+00   13.5     0.02749894     -5672.5079104891 -7.32E-02
  POISSON|   iter        pres error      nabs error        E_hartree    delta E
  POISSON|      1        0.1201E-05      0.1806E-04    1992.6584844321  0.75E-01
  POISSON|      2        0.2038E-18      0.1201E-05    1992.6584844321  0.23E-12
  POISSON| Poisson solver converged in 2 iterations.
     8 Broy./Diag. 0.30E+00   13.4     0.02030175     -5672.3690270783  1.39E-01
  POISSON|   iter        pres error      nabs error        E_hartree    delta E
  POISSON|      1        0.5070E-06      0.1070E-04    1992.6933286594  0.35E-01
  POISSON|      2        0.3658E-19      0.5070E-06    1992.6933286594 -0.45E-12
  POISSON| Poisson solver converged in 2 iterations.
     9 Broy./Diag. 0.30E+00   13.5     0.01298633     -5672.2747721187  9.43E-02
  POISSON|   iter        pres error      nabs error        E_hartree    delta E
  POISSON|      1        0.1769E-06      0.6845E-05    1992.7062924604  0.13E-01
  POISSON|      2        0.1102E-18      0.1769E-06    1992.7062924604 -0.45E-12
  POISSON| Poisson solver converged in 2 iterations.
    10 Broy./Diag. 0.30E+00   13.6     0.00675506     -5672.2249062350  4.99E-02
  POISSON|   iter        pres error      nabs error        E_hartree    delta E
  POISSON|      1        0.3116E-06      0.5396E-05    1992.7119201193  0.56E-02
  POISSON|      2        0.1758E-18      0.3116E-06    1992.7119201193 -0.23E-12
  POISSON| Poisson solver converged in 2 iterations.
    11 Broy./Diag. 0.30E+00   13.5     0.00365073     -5672.2256469550 -7.41E-04
  POISSON|   iter        pres error      nabs error        E_hartree    delta E
  POISSON|      1        0.2521E-06      0.4785E-05    1992.7219624677  0.10E-01
  POISSON|      2        0.2403E-19      0.2521E-06    1992.7219624677 -0.45E-12
  POISSON| Poisson solver converged in 2 iterations.
    12 Broy./Diag. 0.30E+00   13.5     0.00194921     -5672.2519852403 -2.63E-02
  POISSON|   iter        pres error      nabs error        E_hartree    delta E
  POISSON|      1        0.1813E-06      0.4027E-05    1992.7268375823  0.49E-02
  POISSON|      2        0.1451E-18      0.1813E-06    1992.7268375823  0.00E+00
  POISSON| Poisson solver converged in 2 iterations.
    13 Broy./Diag. 0.30E+00   13.5     0.00112512     -5672.2154722797  3.65E-02
  POISSON|   iter        pres error      nabs error        E_hartree    delta E
  POISSON|      1        0.1351E-06      0.1770E-05    1992.7278642789  0.10E-02
  POISSON|      2        0.2997E-19      0.1351E-06    1992.7278642789  0.00E+00
  POISSON| Poisson solver converged in 2 iterations.
    14 Broy./Diag. 0.30E+00   13.5     0.00114395     -5672.2395776976 -2.41E-02
  POISSON|   iter        pres error      nabs error        E_hartree    delta E
  POISSON|      1        0.6164E-06      0.2552E-05    1992.7291713467  0.13E-02
  POISSON|      2        0.3118E-19      0.6164E-06    1992.7291713467  0.00E+00
  POISSON| Poisson solver converged in 2 iterations.
    15 Broy./Diag. 0.30E+00   13.6     0.00130326     -5672.2385488452  1.03E-03
  POISSON|   iter        pres error      nabs error        E_hartree    delta E
  POISSON|      1        0.6375E-06      0.2894E-05    1992.7287588758 -0.41E-03
  POISSON|      2        0.1291E-19      0.6375E-06    1992.7287588758  0.00E+00
  POISSON| Poisson solver converged in 2 iterations.
    16 Broy./Diag. 0.30E+00   13.5     0.00142853     -5672.2299303186  8.62E-03
  POISSON|   iter        pres error      nabs error        E_hartree    delta E
  POISSON|      1        0.2752E-06      0.2396E-05    1992.7293703100  0.61E-03
  POISSON|      2        0.1029E-18      0.2752E-06    1992.7293703100  0.00E+00
  POISSON| Poisson solver converged in 2 iterations.
    17 Broy./Diag. 0.30E+00   13.6     0.00067177     -5672.2351936902 -5.26E-03
  POISSON|   iter        pres error      nabs error        E_hartree    delta E
  POISSON|      1        0.6028E-07      0.1325E-05    1992.7299380153  0.57E-03
  POISSON|      2        0.4643E-19      0.6028E-07    1992.7299380153  0.23E-12
  POISSON| Poisson solver converged in 2 iterations.
    18 Broy./Diag. 0.30E+00   13.6     0.00047629     -5672.2414591465 -6.27E-03
  POISSON|   iter        pres error      nabs error        E_hartree    delta E
  POISSON|      1        0.6178E-07      0.1225E-05    1992.7303974327  0.46E-03
  POISSON|      2        0.5110E-19      0.6178E-07    1992.7303974327  0.00E+00
  POISSON| Poisson solver converged in 2 iterations.
    19 Broy./Diag. 0.30E+00   13.6     0.00024988     -5672.2419198654 -4.61E-04
  POISSON|   iter        pres error      nabs error        E_hartree    delta E
  POISSON|      1        0.5279E-07      0.9300E-06    1992.7309423925  0.54E-03
  POISSON|      2        0.3878E-19      0.5279E-07    1992.7309423925  0.23E-12
  POISSON| Poisson solver converged in 2 iterations.
    20 Broy./Diag. 0.30E+00   13.6     0.00021243     -5672.2427546262 -8.35E-04
  POISSON|   iter        pres error      nabs error        E_hartree    delta E
  POISSON|      1        0.5907E-07      0.9287E-06    1992.7314583376  0.52E-03
  POISSON|      2        0.4046E-19      0.5907E-07    1992.7314583376 -0.23E-12
  POISSON| Poisson solver converged in 2 iterations.
    21 Broy./Diag. 0.30E+00   13.5     0.00021152     -5672.2426892918  6.53E-05
  POISSON|   iter        pres error      nabs error        E_hartree    delta E
  POISSON|      1        0.7320E-07      0.9329E-06    1992.7317674013  0.31E-03
  POISSON|      2        0.4451E-19      0.7320E-07    1992.7317674013 -0.23E-12
  POISSON| Poisson solver converged in 2 iterations.
    22 Broy./Diag. 0.30E+00   13.5     0.00018307     -5672.2425166034  1.73E-04
  POISSON|   iter        pres error      nabs error        E_hartree    delta E
  POISSON|      1        0.6103E-07      0.1206E-05    1992.7324524335  0.69E-03
  POISSON|      2        0.5004E-19      0.6103E-07    1992.7324524335 -0.23E-12
  POISSON| Poisson solver converged in 2 iterations.
    23 Broy./Diag. 0.30E+00   13.7     0.00012428     -5672.2441610644 -1.64E-03
  POISSON|   iter        pres error      nabs error        E_hartree    delta E
  POISSON|      1        0.6571E-07      0.9872E-06    1992.7327622569  0.31E-03
  POISSON|      2        0.4607E-19      0.6571E-07    1992.7327622569  0.23E-12
  POISSON| Poisson solver converged in 2 iterations.
    24 Broy./Diag. 0.30E+00   13.5     0.00008033     -5672.2428152613  1.35E-03
  POISSON|   iter        pres error      nabs error        E_hartree    delta E
  POISSON|      1        0.6472E-07      0.3897E-06    1992.7327130310 -0.49E-04
  POISSON|      2        0.8279E-20      0.6472E-07    1992.7327130310  0.00E+00
  POISSON| Poisson solver converged in 2 iterations.
    25 Broy./Diag. 0.30E+00   13.5     0.00019847     -5672.2439919691 -1.18E-03
  POISSON|   iter        pres error      nabs error        E_hartree    delta E
  POISSON|      1        0.1342E-06      0.7541E-06    1992.7329977620  0.28E-03
  POISSON|      2        0.2998E-19      0.1342E-06    1992.7329977620  0.00E+00
  POISSON| Poisson solver converged in 2 iterations.
    26 Broy./Diag. 0.30E+00   13.5     0.00021457     -5672.2446747047 -6.83E-04
  POISSON|   iter        pres error      nabs error        E_hartree    delta E
  POISSON|      1        0.1183E-07      0.8854E-06    1992.7331648458  0.17E-03
  POISSON|      2        0.3733E-19      0.1183E-07    1992.7331648458  0.23E-12
  POISSON| Poisson solver converged in 2 iterations.
    27 Broy./Diag. 0.30E+00   13.6     0.00012417     -5672.2438397669  8.35E-04
  POISSON|   iter        pres error      nabs error        E_hartree    delta E
  POISSON|      1        0.4181E-07      0.5670E-06    1992.7332068881  0.42E-04
  POISSON|      2        0.2688E-19      0.4181E-07    1992.7332068881  0.23E-12
  POISSON| Poisson solver converged in 2 iterations.
    28 Broy./Diag. 0.30E+00   13.5     0.00008746     -5672.2437947635  4.50E-05
  POISSON|   iter        pres error      nabs error        E_hartree    delta E
  POISSON|      1        0.3499E-07      0.5508E-06    1992.7332710061  0.64E-04
  POISSON|      2        0.2436E-19      0.3499E-07    1992.7332710061 -0.23E-12
  POISSON| Poisson solver converged in 2 iterations.
    29 Broy./Diag. 0.30E+00   13.5     0.00006110     -5672.2448663435 -1.07E-03
  POISSON|   iter        pres error      nabs error        E_hartree    delta E
  POISSON|      1        0.2400E-07      0.4369E-06    1992.7333162687  0.45E-04
  POISSON|      2        0.1921E-19      0.2400E-07    1992.7333162687  0.45E-12
  POISSON| Poisson solver converged in 2 iterations.
    30 Broy./Diag. 0.30E+00   13.5     0.00004578     -5672.2449723228 -1.06E-04
  POISSON|   iter        pres error      nabs error        E_hartree    delta E
  POISSON|      1        0.3016E-07      0.4866E-06    1992.7333448005  0.29E-04
  POISSON|      2        0.2296E-19      0.3016E-07    1992.7333448005  0.00E+00
  POISSON| Poisson solver converged in 2 iterations.
    31 Broy./Diag. 0.30E+00   13.6     0.00004257     -5672.2448693754  1.03E-04
  POISSON|   iter        pres error      nabs error        E_hartree    delta E
  POISSON|      1        0.1418E-07      0.2653E-06    1992.7333679798  0.23E-04
  POISSON|      2        0.1260E-19      0.1418E-07    1992.7333679798  0.23E-12
  POISSON| Poisson solver converged in 2 iterations.
    32 Broy./Diag. 0.30E+00   13.6     0.00003706     -5672.2454013629 -5.32E-04
  POISSON|   iter        pres error      nabs error        E_hartree    delta E
  POISSON|      1        0.2600E-07      0.3390E-06    1992.7333828670  0.15E-04
  POISSON|      2        0.1722E-19      0.2600E-07    1992.7333828670  0.00E+00
  POISSON| Poisson solver converged in 2 iterations.
    33 Broy./Diag. 0.30E+00   13.6     0.00003536     -5672.2451821657  2.19E-04
  POISSON|   iter        pres error      nabs error        E_hartree    delta E
  POISSON|      1        0.9669E-08      0.2016E-06    1992.7334235449  0.41E-04
  POISSON| Poisson solver converged in 1 iteration. 
    34 Broy./Diag. 0.30E+00   12.1     0.00001852     -5672.2455490535 -3.67E-04
  POISSON|   iter        pres error      nabs error        E_hartree    delta E
  POISSON|      1        0.2489E-07      0.2536E-06    1992.7334651174  0.42E-04
  POISSON|      2        0.1323E-19      0.2489E-07    1992.7334651174  0.00E+00
  POISSON| Poisson solver converged in 2 iterations.
    35 Broy./Diag. 0.30E+00   13.5     0.00002828     -5672.2452923429  2.57E-04
  POISSON|   iter        pres error      nabs error        E_hartree    delta E
  POISSON|      1        0.2030E-07      0.8649E-07    1992.7334539773 -0.11E-04
  POISSON|      2        0.2674E-20      0.2030E-07    1992.7334539773  0.00E+00
  POISSON| Poisson solver converged in 2 iterations.
    36 Broy./Diag. 0.30E+00   13.5     0.00004268     -5672.2454089488 -1.17E-04
  POISSON|   iter        pres error      nabs error        E_hartree    delta E
  POISSON|      1        0.2568E-07      0.2260E-06    1992.7335047781  0.51E-04
  POISSON|      2        0.1123E-19      0.2568E-07    1992.7335047781  0.00E+00
  POISSON| Poisson solver converged in 2 iterations.
    37 Broy./Diag. 0.30E+00   13.5     0.00003495     -5672.2455154797 -1.07E-04
  POISSON|   iter        pres error      nabs error        E_hartree    delta E
  POISSON|      1        0.5949E-08      0.1516E-06    1992.7335492148  0.44E-04
  POISSON| Poisson solver converged in 1 iteration. 
    38 Broy./Diag. 0.30E+00   12.1     0.00001877     -5672.2453591852  1.56E-04
  POISSON|   iter        pres error      nabs error        E_hartree    delta E
  POISSON|      1        0.5179E-08      0.1001E-06    1992.7335693201  0.20E-04
  POISSON| Poisson solver converged in 1 iteration. 
    39 Broy./Diag. 0.30E+00   12.1     0.00001607     -5672.2452328238  1.26E-04
  POISSON|   iter        pres error      nabs error        E_hartree    delta E
  POISSON|      1        0.7435E-08      0.1187E-06    1992.7335893141  0.20E-04
  POISSON| Poisson solver converged in 1 iteration. 
    40 Broy./Diag. 0.30E+00   12.1     0.00001103     -5672.2452767207 -4.39E-05
  POISSON|   iter        pres error      nabs error        E_hartree    delta E
  POISSON|      1        0.4383E-08      0.8614E-07    1992.7336067672  0.17E-04
  POISSON| Poisson solver converged in 1 iteration. 
    41 Broy./Diag. 0.30E+00   12.3     0.00001152     -5672.2453108030 -3.41E-05
  POISSON|   iter        pres error      nabs error        E_hartree    delta E
  POISSON|      1        0.5829E-08      0.9090E-07    1992.7336068321  0.65E-07
  POISSON| Poisson solver converged in 1 iteration. 
    42 Broy./Diag. 0.30E+00   12.3     0.00000873     -5672.2451932482  1.18E-04
  POISSON|   iter        pres error      nabs error        E_hartree    delta E
  POISSON|      1        0.3329E-08      0.8393E-07    1992.7336101017  0.33E-05
  POISSON| Poisson solver converged in 1 iteration. 
    43 Broy./Diag. 0.30E+00   12.1     0.00000793     -5672.2453090647 -1.16E-04
  POISSON|   iter        pres error      nabs error        E_hartree    delta E
  POISSON|      1        0.5683E-08      0.8543E-07    1992.7335987533 -0.11E-04
  POISSON| Poisson solver converged in 1 iteration. 
    44 Broy./Diag. 0.30E+00   12.1     0.00000639     -5672.2452623172  4.67E-05
  POISSON|   iter        pres error      nabs error        E_hartree    delta E
  POISSON|      1        0.2128E-08      0.6974E-07    1992.7335962602 -0.25E-05
  POISSON| Poisson solver converged in 1 iteration. 
    45 Broy./Diag. 0.30E+00   12.1     0.00000661     -5672.2453441433 -8.18E-05
  POISSON|   iter        pres error      nabs error        E_hartree    delta E
  POISSON|      1        0.3648E-08      0.3293E-07    1992.7335940491 -0.22E-05
  POISSON| Poisson solver converged in 1 iteration. 
    46 Broy./Diag. 0.30E+00   12.1     0.00001265     -5672.2453144923  2.97E-05
  POISSON|   iter        pres error      nabs error        E_hartree    delta E
  POISSON|      1        0.9678E-09      0.9191E-07    1992.7335883884 -0.57E-05
  POISSON| Poisson solver converged in 1 iteration. 
    47 Broy./Diag. 0.30E+00   12.1     0.00001113     -5672.2452878863  2.66E-05
  POISSON|   iter        pres error      nabs error        E_hartree    delta E
  POISSON|      1        0.3582E-08      0.4416E-07    1992.7335852745 -0.31E-05
  POISSON| Poisson solver converged in 1 iteration. 
    48 Broy./Diag. 0.30E+00   12.1     0.00000615     -5672.2453623509 -7.45E-05
  POISSON|   iter        pres error      nabs error        E_hartree    delta E
  POISSON|      1        0.2133E-08      0.4035E-07    1992.7335863101  0.10E-05
  POISSON| Poisson solver converged in 1 iteration. 
    49 Broy./Diag. 0.30E+00   12.2     0.00000489     -5672.2453542520  8.10E-06
  POISSON|   iter        pres error      nabs error        E_hartree    delta E
  POISSON|      1        0.1938E-08      0.4246E-07    1992.7335885655  0.23E-05
  POISSON| Poisson solver converged in 1 iteration. 
    50 Broy./Diag. 0.30E+00   12.1     0.00000414     -5672.2453382170  1.60E-05
  POISSON|   iter        pres error      nabs error        E_hartree    delta E
  POISSON|      1        0.2499E-08      0.4233E-07    1992.7335911632  0.26E-05
  POISSON| Poisson solver converged in 1 iteration. 
    51 Broy./Diag. 0.30E+00   12.1     0.00000364     -5672.2453361814  2.04E-06
  POISSON|   iter        pres error      nabs error        E_hartree    delta E
  POISSON|      1        0.1348E-08      0.2968E-07    1992.7335988124  0.76E-05
  POISSON| Poisson solver converged in 1 iteration. 
    52 Broy./Diag. 0.30E+00   12.1     0.00000278     -5672.2453661906 -3.00E-05
  POISSON|   iter        pres error      nabs error        E_hartree    delta E
  POISSON|      1        0.1919E-08      0.2634E-07    1992.7336037173  0.49E-05
  POISSON| Poisson solver converged in 1 iteration. 
    53 Broy./Diag. 0.30E+00   12.1     0.00000214     -5672.2453149837  5.12E-05
  POISSON|   iter        pres error      nabs error        E_hartree    delta E
  POISSON|      1        0.1742E-08      0.3947E-07    1992.7336149130  0.11E-04
  POISSON| Poisson solver converged in 1 iteration. 
    54 Broy./Diag. 0.30E+00   12.1     0.00000199     -5672.2453341707 -1.92E-05
  POISSON|   iter        pres error      nabs error        E_hartree    delta E
  POISSON|      1        0.2083E-08      0.2953E-07    1992.7336210279  0.61E-05
  POISSON| Poisson solver converged in 1 iteration. 
    55 Broy./Diag. 0.30E+00   12.1     0.00000201     -5672.2453189464  1.52E-05
  POISSON|   iter        pres error      nabs error        E_hartree    delta E
  POISSON|      1        0.2240E-08      0.1311E-07    1992.7336212342  0.21E-06
  POISSON| Poisson solver converged in 1 iteration. 
    56 Broy./Diag. 0.30E+00   12.1     0.00000470     -5672.2453318478 -1.29E-05
  POISSON|   iter        pres error      nabs error        E_hartree    delta E
  POISSON|      1        0.2965E-08      0.3135E-07    1992.7336264479  0.52E-05
  POISSON| Poisson solver converged in 1 iteration. 
    57 Broy./Diag. 0.30E+00   12.1     0.00000442     -5672.2453336561 -1.81E-06
  POISSON|   iter        pres error      nabs error        E_hartree    delta E
  POISSON|      1        0.1414E-09      0.1391E-07    1992.7336284655  0.20E-05
  POISSON| Poisson solver converged in 1 iteration. 
    58 Broy./Diag. 0.30E+00   12.2     0.00000216     -5672.2453276925  5.96E-06
  POISSON|   iter        pres error      nabs error        E_hartree    delta E
  POISSON|      1        0.7181E-09      0.1169E-07    1992.7336287258  0.26E-06
  POISSON| Poisson solver converged in 1 iteration. 
    59 Broy./Diag. 0.30E+00   12.2     0.00000195     -5672.2453331428 -5.45E-06
  POISSON|   iter        pres error      nabs error        E_hartree    delta E
  POISSON|      1        0.7243E-09      0.1156E-07    1992.7336291581  0.43E-06
  POISSON| Poisson solver converged in 1 iteration. 
    60 Broy./Diag. 0.30E+00   12.2     0.00000133     -5672.2453451958 -1.21E-05
  POISSON|   iter        pres error      nabs error        E_hartree    delta E
  POISSON|      1        0.5380E-09      0.1154E-07    1992.7336294964  0.34E-06
  POISSON| Poisson solver converged in 1 iteration. 
    61 Broy./Diag. 0.30E+00   12.2     0.00000098     -5672.2453465215 -1.33E-06

  *** SCF run converged in    61 steps ***


  Electronic density on regular grids:      -2159.9999999992        0.0000000008
  Core density on regular grids:             2159.9999999995       -0.0000000005
  Total charge density on r-space grids:        0.0000000003
  Total charge density g-space grids:           0.0000000003

  Overlap energy of the core charge distribution:               0.00003381814441
  Self energy of the core charge distribution:              -9891.63555570741482
  Core Hamiltonian energy:                                   3202.71173064115283
  Hartree energy:                                            1992.73362949636089
  Electric enthalpy:                                         1992.73362949636225
  Exchange-correlation energy:                               -971.31460384789557
  Dispersion energy:                                           -4.70711388304152
  Electronic entropic energy:                                  -0.03346707846197
  Fermi energy:                                                -0.20812936696786

  Total energy:                                             -5672.24534652145303

 The electron density is written in cube file format to the file:

 cp2k-ELECTRON_DENSITY-1_0.cube

 !-----------------------------------------------------------------------------!
                     Mulliken Population Analysis

 #  Atom  Element  Kind  Atomic population                           Net charge
       1     Pt       1         10.050154                             -0.050154
       2     Pt       1         10.033484                             -0.033484
       3     Pt       1         10.043170                             -0.043170
       4     Pt       1         10.060407                             -0.060407
       5     Pt       1         10.047886                             -0.047886
       6     Pt       1         10.060622                             -0.060622
       7     Pt       1         10.048532                             -0.048532
       8     Pt       1         10.043873                             -0.043873
       9     Pt       1         10.057259                             -0.057259
      10     Pt       1         10.062298                             -0.062298
      11     Pt       1         10.062399                             -0.062399
      12     Pt       1         10.046015                             -0.046015
      13     Pt       1         10.046843                             -0.046843
      14     Pt       1         10.053397                             -0.053397
      15     Pt       1         10.044928                             -0.044928
      16     Pt       1         10.034921                             -0.034921
      17     Pt       1         10.040068                             -0.040068
      18     Pt       1         10.063355                             -0.063355
      19     Pt       1         10.029559                             -0.029559
[...]
    191      1      Pt          0.00411697    -0.01097708    -0.00655014
    192      1      Pt         -0.00857429     0.01193261     0.00485125
    193      1      Pt          0.00381788     0.00395934    -0.00843600
    194      1      Pt          0.00734912    -0.00072435    -0.01146935
    195      1      Pt         -0.00134372     0.01450331     0.00427233
    196      1      Pt          0.00783897     0.01797823    -0.00119114
    197      1      Pt          0.00876114    -0.02473860     0.01362365
    198      1      Pt         -0.01138736     0.00024128     0.00284003
    199      1      Pt          0.01303985     0.00743718     0.00149884
    200      1      Pt         -0.01733281     0.00402104     0.03035467
    201      1      Pt          0.00181132    -0.00241370     0.00022836
    202      1      Pt         -0.01161183     0.01675288     0.00905295
    203      1      Pt          0.00381737     0.00326755    -0.01762699
    204      1      Pt         -0.00471575     0.01242738    -0.01032027
    205      1      Pt          0.00311770     0.00395782    -0.00912975
    206      1      Pt          0.00252496     0.01824311     0.00557826
    207      1      Pt         -0.01331748     0.00115091     0.00119486
    208      1      Pt         -0.00015064     0.00015116    -0.00160144
    209      1      Pt          0.01054208     0.00134058    -0.00044698
    210      1      Pt          0.00456067    -0.00493589    -0.00225589
    211      1      Pt         -0.00009758    -0.01053646     0.00232423
    212      1      Pt          0.00144504    -0.00690516    -0.00431262
    213      1      Pt         -0.00345661     0.00901661     0.01493952
    214      1      Pt         -0.01642967    -0.01023986    -0.00914780
    215      1      Pt          0.00372966    -0.00708622     0.00876568
    216      1      Pt          0.00559182    -0.01612569    -0.00425046
 SUM OF ATOMIC FORCES           0.00000107    -0.00002344     0.00000177     0.00002353

 -------------------------------------------------------------------------------
 -                                                                             -
 -                                DBCSR STATISTICS                             -
 -                                                                             -
 -------------------------------------------------------------------------------
 COUNTER                                    TOTAL       BLAS       SMM       ACC
 flops    20 x    12 x    20            447897600       0.0%    100.0%      0.0%
 flops    20 x    32 x    20          58525286400       0.0%    100.0%      0.0%
 flops    20 x    20 x   204         240959577600       0.0%    100.0%      0.0%
 flops    20 x    20 x   224         264583065600       0.0%    100.0%      0.0%
 flops    20 x    20 x   192        1360712908800       0.0%    100.0%      0.0%
 flops inhomo. stacks                           0       0.0%      0.0%      0.0%
 flops total                         1.925229E+12       0.0%    100.0%      0.0%
 flops max/rank                     61.786829E+09       0.0%    100.0%      0.0%
 matmuls inhomo. stacks                         0       0.0%      0.0%      0.0%
 matmuls total                           14144544       0.0%    100.0%      0.0%
 number of processed stacks                 18560       0.0%    100.0%      0.0%
 average stack size                                     0.0     762.1       0.0
 marketing flops                     2.739976E+12
 -------------------------------------------------------------------------------
 # multiplications                             64
 max memory usage/rank               1.820598E+09
 # max total images/rank                        2
 # max 3D layers                                1
 # MPI messages exchanged                   26624
 MPI messages size (bytes):
  total size                        35.609932E+09
  min size                         829.440000E+03
  max size                           4.665600E+06
  average size                       1.337512E+06
 MPI breakdown and total messages size (bytes):
             size <=      128                   0                        0
       128 < size <=     8192                   0                        0
      8192 < size <=    32768                   0                        0
     32768 < size <=   131072                   0                        0
    131072 < size <=  4194304               26400              34564838400
   4194304 < size <= 16777216                 224               1045094400
  16777216 < size                               0                        0
 -------------------------------------------------------------------------------

 *** WARNING in dbcsr_mm.F:290 :: Using a non-square number of MPI ranks ***
 *** might lead to poor performance. Used ranks: 32 Suggested: 36 64     ***

 -------------------------------------------------------------------------------
 -                                                                             -
 -                      DBCSR MESSAGE PASSING PERFORMANCE                      -
 -                                                                             -
 -------------------------------------------------------------------------------
 ROUTINE             CALLS      AVE VOLUME [Bytes]
 MP_Bcast                6                     12.
 MP_Allreduce          471                      9.
 MP_Alltoall          1773                1274992.
 MP_ISend             2048                 578838.
 MP_IRecv             2048                 561858.
 -------------------------------------------------------------------------------

 -------------------------------------------------------------------------------
 -                                                                             -
 -                                DBM STATISTICS                               -
 -                                                                             -
 -------------------------------------------------------------------------------
    M  x    N  x    K                                          COUNT     PERCENT
 -------------------------------------------------------------------------------

 -------------------------------------------------------------------------------
 -                                                                             -
 -                                GRID STATISTICS                              -
 -                                                                             -
 -------------------------------------------------------------------------------
 LP    KERNEL             BACKEND                              COUNT     PERCENT
 4     collocate general  REF                               21150060      49.97%
 4     integrate general  REF                               20808930      49.16%
 5     integrate general  REF                                 341130       0.81%
 0     collocate general  REF                                  13824       0.03%
 0     integrate general  REF                                   6912       0.02%
 1     integrate general  REF                                   6912       0.02%
 -------------------------------------------------------------------------------

 MEMORY| Estimated peak process memory [MiB]                                2096

 -------------------------------------------------------------------------------
 ----                             MULTIGRID INFO                            ----
 -------------------------------------------------------------------------------
 count for grid        1:          17577          cutoff [a.u.]          200.00
 count for grid        2:         177819          cutoff [a.u.]           66.67
 count for grid        3:         109953          cutoff [a.u.]           22.22
 count for grid        4:         155420          cutoff [a.u.]            7.41
 total gridlevel count  :         460769

 -------------------------------------------------------------------------------
 -                                                                             -
 -                         MESSAGE PASSING PERFORMANCE                         -
 -                                                                             -
 -------------------------------------------------------------------------------

 ROUTINE             CALLS      AVE VOLUME [Bytes]
 MP_Group                4
 MP_Bcast             1766                 164901.
 MP_Allreduce         1632                   1549.
 MP_Sync                67
 MP_Alltoall          3117               49578049.
 MP_SendRecv           124                  14976.
 MP_ISendRecv         7688                 214800.
 MP_Wait             18644
 MP_comm_split           1
 MP_ISend             9824                 715239.
 MP_IRecv             9824                 715239.
 MP_Recv               192                1105920.
 MP_Write_All            3                4213860.
 -------------------------------------------------------------------------------


 -------------------------------------------------------------------------------
 -                                                                             -
 -                           R E F E R E N C E S                               -
 -                                                                             -
 -------------------------------------------------------------------------------
 
 CP2K version 2022.1, the CP2K developers group (2022).
 CP2K is freely available from https://www.cp2k.org/ .

 Kuehne,Thomas D.; Iannuzzi,Marcella; Del Ben,Mauro;
 Rybkin,Vladimir V.; Seewald,Patrick; Stein,Frederick; Laino,Teodoro;
 Khaliullin,Rustam Z.; Schuett,Ole; Schiffmann,Florian; Golze,Dorothea;
 Wilhelm,Jan; Chulkov,Sergey; Bani-Hashemian,Mohammad Hossein;
 Weber,Valery; Borstnik,Urban; Taillefumier,Mathieu;
 Jakobovits,Alice Shoshana; Lazzaro,Alfio; Pabst,Hans; Mueller,Tiziano;
 Schade,Robert; Guidon,Manuel; Andermatt,Samuel; Holmberg,Nico;
 Schenter,Gregory K.; Hehn,Anna; Bussy,Augustin; Belleflamme,Fabian;
 Tabacchi,Gloria; Gloess,Andreas; Lass,Michael; Bethune,Iain;
 Mundy,Christopher J.; Plessl,Christian; Watkins,Matt;
 VandeVondele,Joost; Krack,Matthias; Hutter,Juerg. 
 The Journal of Chemical Physics, 152 (19), (2020). 
 CP2K: An electronic structure and molecular dynamics software package -
 Quickstep: Efficient and accurate electronic structure calculations.
 https://doi.org/10.1063/5.0007045

 Goerigk, Lars; Hansen, Andreas; Bauer, Christoph; Ehrlich, Stephan;
 Najibi, Asim; Grimme, Stefan. , 19 (48), (2017). 
 A look at the density functional theory zoo with the advanced GMTKN55 database
 for general main group thermochemistry, kinetics and noncovalent interactions.
 https://doi.org/10.1039/C7CP04913G

 Bani-Hashemian, MH; Bruck, S; Luisier, M; VandeVondele, J. 
 JOURNAL OF CHEMICAL PHYSICS, 144 (4), 044113 (2016). 
 A generalized Poisson solver for first-principles device simulations.
 https://doi.org/10.1063/1.4940796

 Schuett, Ole; Messmer, Peter; Hutter, Juerg; VandeVondele, Joost. 
 Electronic Structure Calculations on Graphics Processing Units, John
 Wiley & Sons, Ltd, 173-190 (2016). 
 GPU-Accelerated Sparse Matrix-Matrix Multiplication for
 Linear Scaling Density Functional Theory.
 https://doi.org/10.1002/9781118670712.ch8

 Heinecke, A; Henry, G; Hutchinson, M; Pabst, H. 
 Proceedings of Intl. Supercomputing Conference, 981-991 (2016). 
 LIBXSMM: Accelerating Small Matrix Multiplications
 by Runtime Code Generation.
 https://doi.org/10.1109/SC.2016.83

 Borstnik, U; VandeVondele, J; Weber, V; Hutter, J. 
 PARALLEL COMPUTING, 40 (5-6), 47-58 (2014). 
 Sparse matrix multiplication: The distributed block-compressed sparse
 row library.
 https://doi.org/10.1016/j.parco.2014.03.012

 Hutter, J; Iannuzzi, M; Schiffmann, F; VandeVondele, J. 
 WIREs Comput Mol Sci., 4 (1), 15-25 (2014). 
 CP2K: atomistic simulations of condensed matter systems.
 https://doi.org/10.1002/wcms.1159

 Marek, A; Blum, V; Johanni, R; Havu, V; Lang, B; Auckenthaler, T;
 Heinecke, A; Bungartz, H; Lederer, H. 
 Journal of Physics: Condensed Matter, 26 (21), (2014). 
 The ELPA library: scalable parallel eigenvalue solutions for
 electronic structure
 theory and computational science.
 https://doi.org/10.1088/0953-8984/26/21/213201

 Grimme, S; Ehrlich, S; Goerigk, L. 
 JOURNAL OF COMPUTATIONAL CHEMISTRY, 32, 1456 (2011). 
 Effect of the damping function in dispersion corrected density functional theory.
 https://doi.org/10.1002/jcc.21759

 Grimme, S; Antony, J; Ehrlich, S; Krieg, H. 
 JOURNAL OF CHEMICAL PHYSICS, 132 (15), 154104 (2010). 
 A consistent and accurate ab initio parametrization of density
 functional dispersion correction (DFT-D) for the 94 elements H-Pu.
 https://doi.org/10.1063/1.3382344

 VandeVondele, J; Hutter, J. 
 JOURNAL OF CHEMICAL PHYSICS, 127 (11), 114105 (2007). 
 Gaussian basis sets for accurate calculations on molecular systems in
 gas and condensed phases.
 https://doi.org/10.1063/1.2770708

 Krack, M. 
 THEORETICAL CHEMISTRY ACCOUNTS, 114 (1-3), 145-152 (2005). 
 Pseudopotentials for H to Kr optimized for gradient-corrected
 exchange-correlation functionals.
 https://doi.org/10.1007/s00214-005-0655-y

 VandeVondele, J; Krack, M; Mohamed, F; Parrinello, M; Chassaing, T;
 Hutter, J. COMPUTER PHYSICS COMMUNICATIONS, 167 (2), 103-128 (2005). 
 QUICKSTEP: Fast and accurate density functional calculations using a
 mixed Gaussian and plane waves approach.
 https://doi.org/10.1016/j.cpc.2004.12.014

 Frigo, M; Johnson, SG. 
 PROCEEDINGS OF THE IEEE, 93 (2), 216-231 (2005). 
 The design and implementation of FFTW3.
 https://doi.org/10.1109/JPROC.2004.840301

 Hartwigsen, C; Goedecker, S; Hutter, J. 
 PHYSICAL REVIEW B, 58 (7), 3641-3662 (1998). 
 Relativistic separable dual-space Gaussian pseudopotentials from H to Rn.
 https://doi.org/10.1103/PhysRevB.58.3641

 Lippert, G; Hutter, J; Parrinello, M. 
 MOLECULAR PHYSICS, 92 (3), 477-487 (1997). 
 A hybrid Gaussian and plane wave density functional scheme.
 https://doi.org/10.1080/002689797170220

 Perdew, JP; Burke, K; Ernzerhof, M. 
 PHYSICAL REVIEW LETTERS, 77 (18), 3865-3868 (1996). 
 Generalized gradient approximation made simple.
 https://doi.org/10.1103/PhysRevLett.77.3865

 Goedecker, S; Teter, M; Hutter, J. 
 PHYSICAL REVIEW B, 54 (3), 1703-1710 (1996). 
 Separable dual-space Gaussian pseudopotentials.
 https://doi.org/10.1103/PhysRevB.54.1703


 -------------------------------------------------------------------------------
 -                                                                             -
 -                                T I M I N G                                  -
 -                                                                             -
 -------------------------------------------------------------------------------
 SUBROUTINE                       CALLS  ASD         SELF TIME        TOTAL TIME
                                MAXIMUM       AVERAGE  MAXIMUM  AVERAGE  MAXIMUM
 CP2K                                 1  1.0    0.017    0.042  814.963  814.965
 qs_forces                            1  2.0    0.001    0.001  814.543  814.545
 qs_energies                          1  3.0    0.000    0.000  800.309  800.314
 scf_env_do_scf                       1  4.0    0.000    0.000  790.646  790.747
 scf_env_do_scf_inner_loop           61  5.0    0.003    0.005  790.643  790.744
 rebuild_ks_matrix                   62  7.0    0.000    0.000  509.698  509.725
 qs_ks_build_kohn_sham_matrix        62  8.0    0.010    0.012  509.698  509.725
 qs_ks_update_qs_env                 61  6.0    0.001    0.001  499.912  499.941
 pw_transfer                       2978 12.1    0.225    0.300  289.251  292.080
 fft_wrap_pw1pw2                   2978 13.1    0.032    0.039  289.026  291.845
 fft_wrap_pw1pw2_200               2606 14.4   24.429   27.845  286.319  289.133
 pw_poisson_solve                    62  9.0    0.019    0.028  251.258  251.401
 implicit_poisson_solver_mixed_      62 10.0    6.733    7.277  237.000  237.134
 fft3d_ps                          2978 15.1  122.977  132.037  215.674  218.928
 qs_rho_update_rho_low               62  6.0    0.001    0.001  187.703  187.716
 calculate_rho_elec                  62  7.0    0.340    0.365  187.703  187.715
 sum_up_and_integrate                62  9.0    0.967    1.064  176.613  176.655
 integrate_v_rspace                  62 10.0    0.002    0.002  175.645  175.767
 derive_fft                         322 12.1    0.023    0.026  167.095  168.419
 grid_collocate_task_list            62  8.0   83.266  162.045   83.266  162.045
 grid_integrate_task_list            62 11.0   76.919  150.909   76.919  150.909
 apply_P_operator                   260 11.2    2.424    2.747  137.496  138.556
 rs_pw_transfer                     500 10.5    0.006    0.006  103.684  129.723
 density_rs2pw                       62  8.0    0.004    0.005  102.740  129.117
 mp_waitany                        9824 12.4   86.405  112.116   86.405  112.116
 rs_pw_transfer_RS2PW_200            64 10.0    3.575    4.100   84.906  110.920
 mp_alltoall_d11v                   884 10.3   75.935  100.060   75.935  100.060
 rs_gather_matrices                  62 11.0    0.235    0.269   74.800   98.902
 qs_scf_new_mos                      61  6.0    0.001    0.002   76.423   76.526
 qs_vxc_create                       62  9.0    0.002    0.003   73.466   74.397
 xc_vxc_pw_create                    62 10.0    1.651    2.074   73.463   74.396
 eigensolver                         61  7.0    0.005    0.010   69.024   69.087
 x_to_yz                           1872 16.3   41.206   47.587   64.071   68.352
 mp_alltoall_z22v                  2978 17.1   39.984   61.400   39.984   61.400
 xc_pw_derive                       372 12.0    0.006    0.007   49.649   52.429
 apply_poisson_operator_fft          62 11.0    0.001    0.001   47.210   47.449
 cp_fm_diag_elpa                     62  8.0    0.001    0.001   43.960   44.083
 cp_fm_diag_elpa_base                62  9.0   43.040   43.144   43.863   43.940
 yz_to_x                           1106 15.8   11.437   12.261   28.556   40.578
 xc_rho_set_and_dset_create          62 11.0    0.704    0.854   38.359   39.173
 apply_inv_laplace_operator_fft     163 11.6    1.368    1.453   36.162   37.319
 pw_scatter_p                      1872 15.3   31.945   35.445   31.945   35.445
 xc_pw_divergence                    62 11.0    0.004    0.004   32.477   34.306
 ps_implicit_compute_veps            62 11.0    0.748    0.891   32.777   33.499
 gspace_mixing                       60  6.0    0.329    0.352   29.108   29.117
 pw_derive                         1338 13.1   25.452   26.696   25.452   26.696
 ps_implicit_compute_error_fft       99 10.9    1.835    1.955   24.519   26.373
 cp_fm_triangular_multiply          183  8.0   24.317   24.492   24.317   24.492
 potential_pw2rs                     62 11.0    0.050    0.056   23.914   24.023
 broyden_mixing                      60  7.0   21.225   21.470   21.716   21.778
 pw_gather_p                       1106 14.8   16.669   17.178   16.669   17.178
 -------------------------------------------------------------------------------

 The number of warnings for this run is : 1
 
 -------------------------------------------------------------------------------
  **** **** ******  **  PROGRAM ENDED AT                 2023-12-03 03:29:31.739
 ***** ** ***  *** **   PROGRAM RAN ON                                     cu042
 **    ****   ******    PROGRAM RAN BY                                     jxzhu
 ***** **    ** ** **   PROGRAM PROCESS ID                                 15069
  **** **  *******  **  PROGRAM STOPPED IN /public/home/jxzhu/tmp_calc/04c0855f9
                                           8753fac23fde4df51ba20f3741a9e9a/calc/
                                           task.001.000022
