 DBCSR| CPU Multiplication driver                                           XSMM
 DBCSR| Multrec recursion limit                                              512
 DBCSR| Multiplication stack size                                           1000
 DBCSR| Maximum elements for images                                    UNLIMITED
 DBCSR| Multiplicative factor virtual images                                   1
 DBCSR| Use multiplication densification                                       T
 DBCSR| Multiplication size stacks                                             3
 DBCSR| Number of 3D layers                                               SINGLE
 DBCSR| Use MPI memory allocation                                              T
 DBCSR| Use RMA algorithm                                                      F
 DBCSR| Use Communication thread                                               T
 DBCSR| Communication thread load                                             87


  **** **** ******  **  PROGRAM STARTED AT               2024-11-01 22:24:41.315
 ***** ** ***  *** **   PROGRAM STARTED ON                               c53-012
 **    ****   ******    PROGRAM STARTED BY                                 jxzhu
 ***** **    ** ** **   PROGRAM PROCESS ID                                258577
  **** **  *******  **  PROGRAM STARTED IN /data/jxzhu/nnp/dp_workdir/d1f764b96e
                                           9a01b62c3e35b0c4f5198f3ba3ed59/calc.0
                                           00/task.000.000006

 CP2K| version string:                                          CP2K version 7.1
 CP2K| source code revision number:                                  git:e635599
 CP2K| cp2kflags: libint fftw3 libxc elpa parallel mpi3 scalapack xsmm spglib   
 CP2K| is freely available from                            https://www.cp2k.org/
 CP2K| Program compiled at                           Mon Mar 8 20:53:19 CST 2021
 CP2K| Program compiled on                                                 mgt01
 CP2K| Program compiled for                                                local
 CP2K| Data directory path                                    /data/jxzhu/basis/
 CP2K| Input file name                                                 input.inp

 GLOBAL| Force Environment number                                              1
 GLOBAL| Basis set file name                                        BASIS_MOLOPT
 GLOBAL| Potential file name                                      GTH_POTENTIALS
 GLOBAL| MM Potential file name                                     MM_POTENTIAL
 GLOBAL| Coordinate file name                                          coord.xyz
 GLOBAL| Method name                                                        CP2K
 GLOBAL| Project name                                                       cp2k
 GLOBAL| Preferred FFT library                                             FFTW3
 GLOBAL| Preferred diagonalization lib.                                     ELPA
 GLOBAL| Run type                                                   ENERGY_FORCE
 GLOBAL| All-to-all communication in single precision                          F
 GLOBAL| FFTs using library dependent lengths                                  F
 GLOBAL| Global print level                                               MEDIUM
 GLOBAL| MPI I/O enabled                                                       T
 GLOBAL| Total number of message passing processes                            32
 GLOBAL| Number of threads for this process                                    1
 GLOBAL| This output is from process                                           0
 GLOBAL| CPU model name                Intel(R) Xeon(R) Gold 6226R CPU @ 2.90GHz
 GLOBAL| CPUID                                                              1003
 GLOBAL| Compiled for CPUID                                                 1002
 HINT in environment.F:814 The compiler target flags (x86_avx2) used to build
   this binary cannot exploit all extensions of this CPU model (x86_avx512).
   Consider compiler target flags as part of FCFLAGS and CFLAGS (ARCH file).

 MEMORY| system memory details [Kb]
 MEMORY|                        rank 0           min           max       average
 MEMORY| MemTotal            196472820     196472820     196472820     196472820
 MEMORY| MemFree             182934732     182934732     182934732     182934732
 MEMORY| Buffers                  2196          2196          2196          2196
 MEMORY| Cached                 800184        800184        800184        800184
 MEMORY| Slab                   431136        431136        431136        431136
 MEMORY| SReclaimable           136552        136552        136552        136552
 MEMORY| MemLikelyFree       183873664     183873664     183873664     183873664


 *** Fundamental physical constants (SI units) ***

 *** Literature: B. J. Mohr and B. N. Taylor,
 ***             CODATA recommended values of the fundamental physical
 ***             constants: 2006, Web Version 5.1
 ***             http://physics.nist.gov/constants

 Speed of light in vacuum [m/s]                             2.99792458000000E+08
 Magnetic constant or permeability of vacuum [N/A**2]       1.25663706143592E-06
 Electric constant or permittivity of vacuum [F/m]          8.85418781762039E-12
 Planck constant (h) [J*s]                                  6.62606896000000E-34
 Planck constant (h-bar) [J*s]                              1.05457162825177E-34
 Elementary charge [C]                                      1.60217648700000E-19
 Electron mass [kg]                                         9.10938215000000E-31
 Electron g factor [ ]                                     -2.00231930436220E+00
 Proton mass [kg]                                           1.67262163700000E-27
 Fine-structure constant                                    7.29735253760000E-03
 Rydberg constant [1/m]                                     1.09737315685270E+07
 Avogadro constant [1/mol]                                  6.02214179000000E+23
 Boltzmann constant [J/K]                                   1.38065040000000E-23
 Atomic mass unit [kg]                                      1.66053878200000E-27
 Bohr radius [m]                                            5.29177208590000E-11

 *** Conversion factors ***

 [u] -> [a.u.]                                              1.82288848426455E+03
 [Angstrom] -> [Bohr] = [a.u.]                              1.88972613288564E+00
 [a.u.] = [Bohr] -> [Angstrom]                              5.29177208590000E-01
 [a.u.] -> [s]                                              2.41888432650478E-17
 [a.u.] -> [fs]                                             2.41888432650478E-02
 [a.u.] -> [J]                                              4.35974393937059E-18
 [a.u.] -> [N]                                              8.23872205491840E-08
 [a.u.] -> [K]                                              3.15774647902944E+05
 [a.u.] -> [kJ/mol]                                         2.62549961709828E+03
 [a.u.] -> [kcal/mol]                                       6.27509468713739E+02
 [a.u.] -> [Pa]                                             2.94210107994716E+13
 [a.u.] -> [bar]                                            2.94210107994716E+08
 [a.u.] -> [atm]                                            2.90362800883016E+08
 [a.u.] -> [eV]                                             2.72113838565563E+01
 [a.u.] -> [Hz]                                             6.57968392072181E+15
 [a.u.] -> [1/cm] (wave numbers)                            2.19474631370540E+05
 [a.u./Bohr**2] -> [1/cm]                                   5.14048714338585E+03
 

 CELL_TOP| Volume [angstrom^3]:                                         4542.849
 CELL_TOP| Vector a [angstrom    11.246     0.000     0.000    |a| =      11.246
 CELL_TOP| Vector b [angstrom     0.000     9.739     0.000    |b| =       9.739
 CELL_TOP| Vector c [angstrom     0.000     0.000    41.478    |c| =      41.478
 CELL_TOP| Angle (b,c), alpha [degree]:                                   90.000
 CELL_TOP| Angle (a,c), beta  [degree]:                                   90.000
 CELL_TOP| Angle (a,b), gamma [degree]:                                   90.000
 CELL_TOP| Numerically orthorhombic:                                         YES

 GENERATE|  Preliminary Number of Bonds generated:                             0
 GENERATE|  Achieved consistency in connectivity generation.

 CELL| Volume [angstrom^3]:                                             4542.849
 CELL| Vector a [angstrom]:      11.246     0.000     0.000    |a| =      11.246
 CELL| Vector b [angstrom]:       0.000     9.739     0.000    |b| =       9.739
 CELL| Vector c [angstrom]:       0.000     0.000    41.478    |c| =      41.478
 CELL| Angle (b,c), alpha [degree]:                                       90.000
 CELL| Angle (a,c), beta  [degree]:                                       90.000
 CELL| Angle (a,b), gamma [degree]:                                       90.000
 CELL| Numerically orthorhombic:                                             YES

 CELL_REF| Volume [angstrom^3]:                                         4542.849
 CELL_REF| Vector a [angstrom    11.246     0.000     0.000    |a| =      11.246
 CELL_REF| Vector b [angstrom     0.000     9.739     0.000    |b| =       9.739
 CELL_REF| Vector c [angstrom     0.000     0.000    41.478    |c| =      41.478
 CELL_REF| Angle (b,c), alpha [degree]:                                   90.000
 CELL_REF| Angle (a,c), beta  [degree]:                                   90.000
 CELL_REF| Angle (a,b), gamma [degree]:                                   90.000
 CELL_REF| Numerically orthorhombic:                                         YES

 *******************************************************************************
 *******************************************************************************
 **                                                                           **
 **     #####                         ##              ##                      **
 **    ##   ##            ##          ##              ##                      **
 **   ##     ##                       ##            ######                    **
 **   ##     ##  ##   ##  ##   #####  ##  ##   ####   ##    #####    #####    **
 **   ##     ##  ##   ##  ##  ##      ## ##   ##      ##   ##   ##  ##   ##   **
 **   ##  ## ##  ##   ##  ##  ##      ####     ###    ##   ######   ######    **
 **    ##  ###   ##   ##  ##  ##      ## ##      ##   ##   ##       ##        **
 **     #######   #####   ##   #####  ##  ##  ####    ##    #####   ##        **
 **           ##                                                    ##        **
 **                                                                           **
 **                                                ... make the atoms dance   **
 **                                                                           **
 **            Copyright (C) by CP2K developers group (2000 - 2019)           **
 **                                                                           **
 *******************************************************************************

 DFT| Spin restricted Kohn-Sham (RKS) calculation                            RKS
 DFT| Multiplicity                                                             1
 DFT| Number of spin states                                                    1
 DFT| Charge                                                                   0
 DFT| Self-interaction correction (SIC)                                       NO
 DFT| Cutoffs: density                                              1.000000E-10
 DFT|          gradient                                             1.000000E-10
 DFT|          tau                                                  1.000000E-10
 DFT|          cutoff_smoothing_range                               0.000000E+00
 DFT| XC density smoothing                                                  NONE
 DFT| XC derivatives                                                          PW
 FUNCTIONAL| ROUTINE=NEW
 FUNCTIONAL| PBE:
 FUNCTIONAL| J.P.Perdew, K.Burke, M.Ernzerhof, Phys. Rev. Letter, vol. 77, n 18,
 FUNCTIONAL|  pp. 3865-3868, (1996){spin unpolarized}                           
 vdW POTENTIAL|                                                   Pair Potential
 vdW POTENTIAL|          DFT-D3 (Version 3.1)
 vdW POTENTIAL|          Potential Form: S. Grimme et al, JCP 132: 154104 (2010)
 vdW POTENTIAL|          Zero Damping
 vdW POTENTIAL|          Cutoff Radius [Bohr]:                             20.00
 vdW POTENTIAL|          s6 Scaling Factor:                               1.0000
 vdW POTENTIAL|          sr6 Scaling Factor:                              1.2170
 vdW POTENTIAL|          s8 Scaling Factor:                               0.7220
 vdW POTENTIAL|          Cutoff for CN calculation:                   0.1000E-05

 QS| Method:                                                                 GPW
 QS| Density plane wave grid type                        NON-SPHERICAL FULLSPACE
 QS| Number of grid levels:                                                    4
 QS| Density cutoff [a.u.]:                                                200.0
 QS| Multi grid cutoff [a.u.]: 1) grid level                               200.0
 QS|                           2) grid level                                66.7
 QS|                           3) grid level                                22.2
 QS|                           4) grid level                                 7.4
 QS| Grid level progression factor:                                          3.0
 QS| Relative density cutoff [a.u.]:                                        20.0
 QS| Consistent realspace mapping and integration 
 QS| Interaction thresholds: eps_pgf_orb:                                3.2E-07
 QS|                         eps_filter_matrix:                          0.0E+00
 QS|                         eps_core_charge:                            1.0E-15
 QS|                         eps_rho_gspace:                             1.0E-13
 QS|                         eps_rho_rspace:                             1.0E-13
 QS|                         eps_gvg_rspace:                             3.2E-07
 QS|                         eps_ppl:                                    1.0E-02
 QS|                         eps_ppnl:                                   3.2E-09


 ATOMIC KIND INFORMATION

  1. Atomic kind: Pt                                    Number of atoms:      96

     Orbital Basis Set                      DZVP-A5-Q10-323-MOL-T1-DERIVED_SET-1

       Number of orbital shell sets:                                           1
       Number of orbital shells:                                               6
       Number of primitive Cartesian functions:                                5
       Number of Cartesian basis functions:                                   23
       Number of spherical basis functions:                                   20
       Norm type:                                                              2

       Normalised Cartesian orbitals:

                        Set   Shell   Orbital            Exponent    Coefficient

                          1       1    2s                2.521825       0.177473
                                                         1.453920      -0.063399
                                                         0.614053      -0.407089
                                                         0.232656       0.262254
                                                         0.074788       0.047371

                          1       2    3s                2.521825      -0.049056
                                                         1.453920       0.044904
                                                         0.614053      -0.009756
                                                         0.232656      -0.144709
                                                         0.074788       0.144085

                          1       3    3px               2.521825      -0.317572
                                                         1.453920       0.534826
                                                         0.614053      -0.489458
                                                         0.232656       0.245631
                                                         0.074788       0.018221
                          1       3    3py               2.521825      -0.317572
                                                         1.453920       0.534826
                                                         0.614053      -0.489458
                                                         0.232656       0.245631
                                                         0.074788       0.018221
                          1       3    3pz               2.521825      -0.317572
                                                         1.453920       0.534826
                                                         0.614053      -0.489458
                                                         0.232656       0.245631
                                                         0.074788       0.018221

                          1       4    4dx2              2.521825       3.008522
                                                         1.453920      -1.224251
                                                         0.614053       0.225691
                                                         0.232656       0.125144
                                                         0.074788      -0.015348
                          1       4    4dxy              2.521825       5.210912
                                                         1.453920      -2.120465
                                                         0.614053       0.390909
                                                         0.232656       0.216756
                                                         0.074788      -0.026584
                          1       4    4dxz              2.521825       5.210912
                                                         1.453920      -2.120465
                                                         0.614053       0.390909
                                                         0.232656       0.216756
                                                         0.074788      -0.026584
                          1       4    4dy2              2.521825       3.008522
                                                         1.453920      -1.224251
                                                         0.614053       0.225691
                                                         0.232656       0.125144
                                                         0.074788      -0.015348
                          1       4    4dyz              2.521825       5.210912
                                                         1.453920      -2.120465
                                                         0.614053       0.390909
                                                         0.232656       0.216756
                                                         0.074788      -0.026584
                          1       4    4dz2              2.521825       3.008522
                                                         1.453920      -1.224251
                                                         0.614053       0.225691
                                                         0.232656       0.125144
                                                         0.074788      -0.015348

                          1       5    5dx2              2.521825       0.698026
                                                         1.453920      -1.511486
                                                         0.614053      -0.335394
                                                         0.232656      -0.025564
                                                         0.074788      -0.002699
                          1       5    5dxy              2.521825       1.209017
                                                         1.453920      -2.617970
                                                         0.614053      -0.580920
                                                         0.232656      -0.044277
                                                         0.074788      -0.004674
                          1       5    5dxz              2.521825       1.209017
                                                         1.453920      -2.617970
                                                         0.614053      -0.580920
                                                         0.232656      -0.044277
                                                         0.074788      -0.004674
                          1       5    5dy2              2.521825       0.698026
                                                         1.453920      -1.511486
                                                         0.614053      -0.335394
                                                         0.232656      -0.025564
                                                         0.074788      -0.002699
                          1       5    5dyz              2.521825       1.209017
                                                         1.453920      -2.617970
                                                         0.614053      -0.580920
                                                         0.232656      -0.044277
                                                         0.074788      -0.004674
                          1       5    5dz2              2.521825       0.698026
                                                         1.453920      -1.511486
                                                         0.614053      -0.335394
                                                         0.232656      -0.025564
                                                         0.074788      -0.002699

                          1       6    6dx2              2.521825       0.831079
                                                         1.453920      -0.709226
                                                         0.614053      -0.137351
                                                         0.232656       0.068642
                                                         0.074788       0.011745
                          1       6    6dxy              2.521825       1.439472
                                                         1.453920      -1.228415
                                                         0.614053      -0.237899
                                                         0.232656       0.118891
                                                         0.074788       0.020343
                          1       6    6dxz              2.521825       1.439472
                                                         1.453920      -1.228415
                                                         0.614053      -0.237899
                                                         0.232656       0.118891
                                                         0.074788       0.020343
                          1       6    6dy2              2.521825       0.831079
                                                         1.453920      -0.709226
                                                         0.614053      -0.137351
                                                         0.232656       0.068642
                                                         0.074788       0.011745
                          1       6    6dyz              2.521825       1.439472
                                                         1.453920      -1.228415
                                                         0.614053      -0.237899
                                                         0.232656       0.118891
                                                         0.074788       0.020343
                          1       6    6dz2              2.521825       0.831079
                                                         1.453920      -0.709226
                                                         0.614053      -0.137351
                                                         0.232656       0.068642
                                                         0.074788       0.011745

     GTH Potential information for                                   GTH-PBE-q10

       Description:                       Goedecker-Teter-Hutter pseudopotential
                                           Goedecker et al., PRB 54, 1703 (1996)
                                          Hartwigsen et al., PRB 58, 3641 (1998)
                                                      Krack, TCA 114, 145 (2005)

       Gaussian exponent of the core charge distribution:               1.317676
       Electronic configuration (s p d ...):                           1   0   9

       Parameters of the local part of the GTH pseudopotential:

                          rloc        C1          C2          C3          C4
                        0.616000   11.313635

       Parameters of the non-local part of the GTH pseudopotential:

                   l      r(l)      h(i,j,l)

                   0    0.550904    4.733491   -1.784594
                                   -1.784594    2.303901
                   1    0.674138    2.534798   -1.778066
                                   -1.778066    2.103836
                   2    0.457392   -7.264011    2.558665
                                    2.558665   -2.901253

  2. Atomic kind: O                                     Number of atoms:       1

     Orbital Basis Set                                        DZVP-MOLOPT-SR-GTH

       Number of orbital shell sets:                                           1
       Number of orbital shells:                                               5
       Number of primitive Cartesian functions:                                5
       Number of Cartesian basis functions:                                   14
       Number of spherical basis functions:                                   13
       Norm type:                                                              2

       Normalised Cartesian orbitals:

                        Set   Shell   Orbital            Exponent    Coefficient

                          1       1    2s               10.389228       0.396646
                                                         3.849621       0.208811
                                                         1.388401      -0.301641
                                                         0.496955      -0.274061
                                                         0.162492      -0.033677

                          1       2    3s               10.389228       0.303673
                                                         3.849621       0.240943
                                                         1.388401      -0.313066
                                                         0.496955      -0.043055
                                                         0.162492       0.213991

                          1       3    3px              10.389228      -1.530415
                                                         3.849621      -1.371928
                                                         1.388401      -0.761951
                                                         0.496955      -0.253695
                                                         0.162492      -0.035541
                          1       3    3py              10.389228      -1.530415
                                                         3.849621      -1.371928
                                                         1.388401      -0.761951
                                                         0.496955      -0.253695
                                                         0.162492      -0.035541
                          1       3    3pz              10.389228      -1.530415
                                                         3.849621      -1.371928
                                                         1.388401      -0.761951
                                                         0.496955      -0.253695
                                                         0.162492      -0.035541

                          1       4    4px              10.389228      -0.565392
                                                         3.849621      -0.038231
                                                         1.388401      -0.382373
                                                         0.496955       0.179070
                                                         0.162492       0.122714
                          1       4    4py              10.389228      -0.565392
                                                         3.849621      -0.038231
                                                         1.388401      -0.382373
                                                         0.496955       0.179070
                                                         0.162492       0.122714
                          1       4    4pz              10.389228      -0.565392
                                                         3.849621      -0.038231
                                                         1.388401      -0.382373
                                                         0.496955       0.179070
                                                         0.162492       0.122714

                          1       5    4dx2             10.389228       1.867377
                                                         3.849621       0.670994
                                                         1.388401       1.353441
                                                         0.496955       0.273538
                                                         0.162492       0.006620
                          1       5    4dxy             10.389228       3.234392
                                                         3.849621       1.162195
                                                         1.388401       2.344229
                                                         0.496955       0.473781
                                                         0.162492       0.011466
                          1       5    4dxz             10.389228       3.234392
                                                         3.849621       1.162195
                                                         1.388401       2.344229
                                                         0.496955       0.473781
                                                         0.162492       0.011466
                          1       5    4dy2             10.389228       1.867377
                                                         3.849621       0.670994
                                                         1.388401       1.353441
                                                         0.496955       0.273538
                                                         0.162492       0.006620
                          1       5    4dyz             10.389228       3.234392
                                                         3.849621       1.162195
                                                         1.388401       2.344229
                                                         0.496955       0.473781
                                                         0.162492       0.011466
                          1       5    4dz2             10.389228       1.867377
                                                         3.849621       0.670994
                                                         1.388401       1.353441
                                                         0.496955       0.273538
                                                         0.162492       0.006620

     GTH Potential information for                                    GTH-PBE-q6

       Description:                       Goedecker-Teter-Hutter pseudopotential
                                           Goedecker et al., PRB 54, 1703 (1996)
                                          Hartwigsen et al., PRB 58, 3641 (1998)
                                                      Krack, TCA 114, 145 (2005)

       Gaussian exponent of the core charge distribution:               8.360253
       Electronic configuration (s p d ...):                               2   4

       Parameters of the local part of the GTH pseudopotential:

                          rloc        C1          C2          C3          C4
                        0.244554  -16.667215    2.487311

       Parameters of the non-local part of the GTH pseudopotential:

                   l      r(l)      h(i,j,l)

                   0    0.220956   18.337458
                   1    0.211332

  3. Atomic kind: H                                     Number of atoms:       2

     Orbital Basis Set                                        DZVP-MOLOPT-SR-GTH

       Number of orbital shell sets:                                           1
       Number of orbital shells:                                               3
       Number of primitive Cartesian functions:                                5
       Number of Cartesian basis functions:                                    5
       Number of spherical basis functions:                                    5
       Norm type:                                                              2

       Normalised Cartesian orbitals:

                        Set   Shell   Orbital            Exponent    Coefficient

                          1       1    2s               10.068468      -0.133023
                                                         2.680223      -0.177618
                                                         0.791502      -0.258419
                                                         0.239116      -0.107525
                                                         0.082193      -0.014019

                          1       2    3s               10.068468       0.344673
                                                         2.680223       1.819821
                                                         0.791502      -0.999069
                                                         0.239116       0.017430
                                                         0.082193       0.082660

                          1       3    3px              10.068468       0.155326
                                                         2.680223       0.367157
                                                         0.791502       0.311480
                                                         0.239116       0.080105
                                                         0.082193       0.033440
                          1       3    3py              10.068468       0.155326
                                                         2.680223       0.367157
                                                         0.791502       0.311480
                                                         0.239116       0.080105
                                                         0.082193       0.033440
                          1       3    3pz              10.068468       0.155326
                                                         2.680223       0.367157
                                                         0.791502       0.311480
                                                         0.239116       0.080105
                                                         0.082193       0.033440

     GTH Potential information for                                    GTH-PBE-q1

       Description:                       Goedecker-Teter-Hutter pseudopotential
                                           Goedecker et al., PRB 54, 1703 (1996)
                                          Hartwigsen et al., PRB 58, 3641 (1998)
                                                      Krack, TCA 114, 145 (2005)

       Gaussian exponent of the core charge distribution:              12.500000
       Electronic configuration (s p d ...):                                   1

       Parameters of the local part of the GTH pseudopotential:

                          rloc        C1          C2          C3          C4
                        0.200000   -4.178900    0.724463


 MOLECULE KIND INFORMATION


 All atoms are their own molecule, skipping detailed information


 TOTAL NUMBERS AND MAXIMUM NUMBERS

  Total number of            - Atomic kinds:                                   3
                             - Atoms:                                         99
                             - Shell sets:                                    99
                             - Shells:                                       587
                             - Primitive Cartesian functions:                495
                             - Cartesian basis functions:                   2232
                             - Spherical basis functions:                   1943

  Maximum angular momentum of- Orbital basis functions:                        2
                             - Local part of the GTH pseudopotential:          2
                             - Non-local part of the GTH pseudopotential:      4


 MODULE QUICKSTEP:  ATOMIC COORDINATES IN angstrom

  Atom  Kind  Element       X           Y           Z          Z(eff)       Mass

       1     1 Pt  78    1.405728    0.811598   15.000000     10.00     195.0840
       2     1 Pt  78    4.217185    0.811598   15.000000     10.00     195.0840
       3     1 Pt  78    7.028641    0.811598   15.000000     10.00     195.0840
       4     1 Pt  78    9.840098    0.811598   15.000000     10.00     195.0840
       5     1 Pt  78    0.000000    3.246390   15.000000     10.00     195.0840
       6     1 Pt  78    2.811457    3.246390   15.000000     10.00     195.0840
       7     1 Pt  78    5.622913    3.246390   15.000000     10.00     195.0840
       8     1 Pt  78    8.434370    3.246390   15.000000     10.00     195.0840
       9     1 Pt  78    1.405728    5.681183   15.000000     10.00     195.0840
      10     1 Pt  78    4.217185    5.681183   15.000000     10.00     195.0840
      11     1 Pt  78    7.028641    5.681183   15.000000     10.00     195.0840
      12     1 Pt  78    9.840098    5.681183   15.000000     10.00     195.0840
      13     1 Pt  78    0.000000    8.115976   15.000000     10.00     195.0840
      14     1 Pt  78    2.811457    8.115976   15.000000     10.00     195.0840
      15     1 Pt  78    5.622913    8.115976   15.000000     10.00     195.0840
      16     1 Pt  78    8.434370    8.115976   15.000000     10.00     195.0840
      17     1 Pt  78    0.000000    1.623195   17.295545     10.00     195.0840
      18     1 Pt  78    2.811457    1.623195   17.295545     10.00     195.0840
      19     1 Pt  78    5.622913    1.623195   17.295545     10.00     195.0840
      20     1 Pt  78    8.434370    1.623195   17.295545     10.00     195.0840
      21     1 Pt  78    1.405728    4.057988   17.295545     10.00     195.0840
      22     1 Pt  78    4.217185    4.057988   17.295545     10.00     195.0840
      23     1 Pt  78    7.028641    4.057988   17.295545     10.00     195.0840
      24     1 Pt  78    9.840098    4.057988   17.295545     10.00     195.0840
      25     1 Pt  78    0.000000    6.492781   17.295545     10.00     195.0840
      26     1 Pt  78    2.811457    6.492781   17.295545     10.00     195.0840
      27     1 Pt  78    5.622913    6.492781   17.295545     10.00     195.0840
      28     1 Pt  78    8.434370    6.492781   17.295545     10.00     195.0840
      29     1 Pt  78    1.405728    8.927574   17.295545     10.00     195.0840
      30     1 Pt  78    4.217185    8.927574   17.295545     10.00     195.0840
      31     1 Pt  78    7.028641    8.927574   17.295545     10.00     195.0840
      32     1 Pt  78    9.840098    8.927574   17.295545     10.00     195.0840
      33     1 Pt  78    0.000000    0.000000   19.591089     10.00     195.0840
      34     1 Pt  78    2.811457    0.000000   19.591089     10.00     195.0840
      35     1 Pt  78    5.622913    0.000000   19.591089     10.00     195.0840
      36     1 Pt  78    8.434370    0.000000   19.591089     10.00     195.0840
      37     1 Pt  78    1.405728    2.434793   19.591089     10.00     195.0840
      38     1 Pt  78    4.217185    2.434793   19.591089     10.00     195.0840
      39     1 Pt  78    7.028641    2.434793   19.591089     10.00     195.0840
      40     1 Pt  78    9.840098    2.434793   19.591089     10.00     195.0840
      41     1 Pt  78    0.000000    4.869586   19.591089     10.00     195.0840
      42     1 Pt  78    2.811457    4.869586   19.591089     10.00     195.0840
      43     1 Pt  78    5.622913    4.869586   19.591089     10.00     195.0840
      44     1 Pt  78    8.434370    4.869586   19.591089     10.00     195.0840
      45     1 Pt  78    1.405728    7.304378   19.591089     10.00     195.0840
      46     1 Pt  78    4.217185    7.304378   19.591089     10.00     195.0840
      47     1 Pt  78    7.028641    7.304378   19.591089     10.00     195.0840
      48     1 Pt  78    9.840098    7.304378   19.591089     10.00     195.0840
      49     1 Pt  78    1.405728    0.811598   21.886634     10.00     195.0840
      50     1 Pt  78    4.217185    0.811598   21.886634     10.00     195.0840
      51     1 Pt  78    7.028641    0.811598   21.886634     10.00     195.0840
      52     1 Pt  78    9.840098    0.811598   21.886634     10.00     195.0840
      53     1 Pt  78    0.000000    3.246390   21.886634     10.00     195.0840
      54     1 Pt  78    2.811457    3.246390   21.886634     10.00     195.0840
      55     1 Pt  78    5.622913    3.246390   21.886634     10.00     195.0840
      56     1 Pt  78    8.434370    3.246390   21.886634     10.00     195.0840
      57     1 Pt  78    1.405728    5.681183   21.886634     10.00     195.0840
      58     1 Pt  78    4.217185    5.681183   21.886634     10.00     195.0840
      59     1 Pt  78    7.028641    5.681183   21.886634     10.00     195.0840
      60     1 Pt  78    9.840098    5.681183   21.886634     10.00     195.0840
      61     1 Pt  78    0.000000    8.115976   21.886634     10.00     195.0840
      62     1 Pt  78    2.811457    8.115976   21.886634     10.00     195.0840
      63     1 Pt  78    5.622913    8.115976   21.886634     10.00     195.0840
      64     1 Pt  78    8.434370    8.115976   21.886634     10.00     195.0840
      65     1 Pt  78    0.000000    1.623195   24.182179     10.00     195.0840
      66     1 Pt  78    2.811457    1.623195   24.182179     10.00     195.0840
      67     1 Pt  78    5.622913    1.623195   24.182179     10.00     195.0840
      68     1 Pt  78    8.434370    1.623195   24.182179     10.00     195.0840
      69     1 Pt  78    1.405728    4.057988   24.182179     10.00     195.0840
      70     1 Pt  78    4.217185    4.057988   24.182179     10.00     195.0840
      71     1 Pt  78    7.028641    4.057988   24.182179     10.00     195.0840
      72     1 Pt  78    9.840098    4.057988   24.182179     10.00     195.0840
      73     1 Pt  78    0.000000    6.492781   24.182179     10.00     195.0840
      74     1 Pt  78    2.811457    6.492781   24.182179     10.00     195.0840
      75     1 Pt  78    5.622913    6.492781   24.182179     10.00     195.0840
      76     1 Pt  78    8.434370    6.492781   24.182179     10.00     195.0840
      77     1 Pt  78    1.405728    8.927574   24.182179     10.00     195.0840
      78     1 Pt  78    4.217185    8.927574   24.182179     10.00     195.0840
      79     1 Pt  78    7.028641    8.927574   24.182179     10.00     195.0840
      80     1 Pt  78    9.840098    8.927574   24.182179     10.00     195.0840
      81     1 Pt  78    0.000000    0.000000   26.477723     10.00     195.0840
      82     1 Pt  78    2.811457    0.000000   26.477723     10.00     195.0840
      83     1 Pt  78    5.622913    0.000000   26.477723     10.00     195.0840
      84     1 Pt  78    8.434370    0.000000   26.477723     10.00     195.0840
      85     1 Pt  78    1.405728    2.434793   26.477723     10.00     195.0840
      86     1 Pt  78    4.217185    2.434793   26.477723     10.00     195.0840
      87     1 Pt  78    7.028641    2.434793   26.477723     10.00     195.0840
      88     1 Pt  78    9.840098    2.434793   26.477723     10.00     195.0840
      89     1 Pt  78    0.000000    4.869586   26.477723     10.00     195.0840
      90     1 Pt  78    2.811457    4.869586   26.477723     10.00     195.0840
      91     1 Pt  78    5.622913    4.869586   26.477723     10.00     195.0840
      92     1 Pt  78    8.434370    4.869586   26.477723     10.00     195.0840
      93     1 Pt  78    1.405728    7.304378   26.477723     10.00     195.0840
      94     1 Pt  78    4.217185    7.304378   26.477723     10.00     195.0840
      95     1 Pt  78    7.028641    7.304378   26.477723     10.00     195.0840
      96     1 Pt  78    9.840098    7.304378   26.477723     10.00     195.0840
      97     2 O    8    5.622913    4.869586   29.177723      6.00      15.9994
      98     3 H    1    5.062566    5.632825   29.381673      1.00       1.0079
      99     3 H    1    5.062566    4.106347   29.381673      1.00       1.0079




 SCF PARAMETERS         Density guess:                                   RESTART
                        --------------------------------------------------------
                        max_scf:                                             500
                        max_scf_history:                                       0
                        max_diis:                                              4
                        --------------------------------------------------------
                        eps_scf:                                        1.00E-06
                        eps_scf_history:                                0.00E+00
                        eps_diis:                                       1.00E-01
                        eps_eigval:                                     1.00E-05
                        --------------------------------------------------------
                        level_shift [a.u.]:                                 0.00
                        added MOs                                       500    0
                        --------------------------------------------------------
                        Mixing method:                            BROYDEN_MIXING
                                                charge density mixing in g-space
                        --------------------------------------------------------
                        Smear method:                                FERMI_DIRAC
                        Electronic temperature [K]:                        300.0
                        Electronic temperature [a.u.]:                  9.50E-04
                        Accuracy threshold:                             1.00E-10
                        --------------------------------------------------------
                        No outer SCF

 PW_GRID| Information for grid number                                          1
 PW_GRID| Grid distributed over                                    32 processors
 PW_GRID| Real space group dimensions                                    32    1
 PW_GRID| the grid is blocked:                                                NO
 PW_GRID| Cutoff [a.u.]                                                    200.0
 PW_GRID| spherical cutoff:                                                   NO
 PW_GRID|   Bounds   1            -67      67                Points:         135
 PW_GRID|   Bounds   2            -60      59                Points:         120
 PW_GRID|   Bounds   3           -250     249                Points:         500
 PW_GRID| Volume element (a.u.^3)  0.3785E-02     Volume (a.u.^3)     30656.6653
 PW_GRID| Grid span                                                    FULLSPACE
 PW_GRID|   Distribution                         Average         Max         Min
 PW_GRID|   G-Vectors                           253125.0      253125      253125
 PW_GRID|   G-Rays                                1875.0        1875        1875
 PW_GRID|   Real Space Points                   253125.0      300000      240000

 PW_GRID| Information for grid number                                          2
 PW_GRID| Number of the reference grid                                         1
 PW_GRID| Grid distributed over                                    32 processors
 PW_GRID| Real space group dimensions                                    32    1
 PW_GRID| the grid is blocked:                                                NO
 PW_GRID| Cutoff [a.u.]                                                     66.7
 PW_GRID| spherical cutoff:                                                   NO
 PW_GRID|   Bounds   1            -40      39                Points:          80
 PW_GRID|   Bounds   2            -36      35                Points:          72
 PW_GRID|   Bounds   3           -150     149                Points:         300
 PW_GRID| Volume element (a.u.^3)  0.1774E-01     Volume (a.u.^3)     30656.6653
 PW_GRID| Grid span                                                    FULLSPACE
 PW_GRID|   Distribution                         Average         Max         Min
 PW_GRID|   G-Vectors                            54000.0       54640       53520
 PW_GRID|   G-Rays                                 675.0         683         669
 PW_GRID|   Real Space Points                    54000.0       64800       43200

 PW_GRID| Information for grid number                                          3
 PW_GRID| Number of the reference grid                                         1
 PW_GRID| Grid distributed over                                    32 processors
 PW_GRID| Real space group dimensions                                    32    1
 PW_GRID| the grid is blocked:                                                NO
 PW_GRID| Cutoff [a.u.]                                                     22.2
 PW_GRID| spherical cutoff:                                                   NO
 PW_GRID|   Bounds   1            -22      22                Points:          45
 PW_GRID|   Bounds   2            -20      19                Points:          40
 PW_GRID|   Bounds   3            -90      89                Points:         180
 PW_GRID| Volume element (a.u.^3)  0.9462E-01     Volume (a.u.^3)     30656.6653
 PW_GRID| Grid span                                                    FULLSPACE
 PW_GRID|   Distribution                         Average         Max         Min
 PW_GRID|   G-Vectors                            10125.0       10260       10035
 PW_GRID|   G-Rays                                 225.0         228         223
 PW_GRID|   Real Space Points                    10125.0       14400        7200

 PW_GRID| Information for grid number                                          4
 PW_GRID| Number of the reference grid                                         1
 PW_GRID| Grid distributed over                                    32 processors
 PW_GRID| Real space group dimensions                                     4    8
 PW_GRID| the grid is blocked:                                                NO
 PW_GRID| Cutoff [a.u.]                                                      7.4
 PW_GRID| spherical cutoff:                                                   NO
 PW_GRID|   Bounds   1            -13      13                Points:          27
 PW_GRID|   Bounds   2            -12      11                Points:          24
 PW_GRID|   Bounds   3            -50      49                Points:         100
 PW_GRID| Volume element (a.u.^3)  0.4731         Volume (a.u.^3)     30656.6653
 PW_GRID| Grid span                                                    FULLSPACE
 PW_GRID|   Distribution                         Average         Max         Min
 PW_GRID|   G-Vectors                             2025.0        2133        1890
 PW_GRID|   G-Rays                                  75.0          79          70
 PW_GRID|   Real Space Points                     2025.0        2100        1800

 POISSON| Solver                                                        PERIODIC
 POISSON| Periodicity                                                        XYZ

 RS_GRID| Information for grid number                                          1
 RS_GRID|   Bounds   1            -67      67                Points:         135
 RS_GRID|   Bounds   2            -60      59                Points:         120
 RS_GRID|   Bounds   3           -250     249                Points:         500
 RS_GRID| Real space distribution over                                 32 groups
 RS_GRID| Real space distribution along direction                              3
 RS_GRID| Border size                                                         34
 RS_GRID|   Distribution                         Average         Max         Min
 RS_GRID|   Planes                                  83.6          84          83

 RS_GRID| Information for grid number                                          2
 RS_GRID|   Bounds   1            -40      39                Points:          80
 RS_GRID|   Bounds   2            -36      35                Points:          72
 RS_GRID|   Bounds   3           -150     149                Points:         300
 RS_GRID| Real space distribution over                                 32 groups
 RS_GRID| Real space distribution along direction                              3
 RS_GRID| Border size                                                         24
 RS_GRID|   Distribution                         Average         Max         Min
 RS_GRID|   Planes                                  57.4          58          57

 RS_GRID| Information for grid number                                          3
 RS_GRID|   Bounds   1            -22      22                Points:          45
 RS_GRID|   Bounds   2            -20      19                Points:          40
 RS_GRID|   Bounds   3            -90      89                Points:         180
 RS_GRID| Real space fully replicated
 RS_GRID| Group size                                                           1

 RS_GRID| Information for grid number                                          4
 RS_GRID|   Bounds   1            -13      13                Points:          27
 RS_GRID|   Bounds   2            -12      11                Points:          24
 RS_GRID|   Bounds   3            -50      49                Points:         100
 RS_GRID| Real space fully replicated
 RS_GRID| Group size                                                           1

 Number of electrons:                                                        968
 Number of occupied orbitals:                                                484
 Number of molecular orbitals:                                               984

 Number of orbital functions:                                               1943
 Number of independent orbital functions:                                   1943

 Extrapolation method: initial_guess


 SCF WAVEFUNCTION OPTIMIZATION

  Step     Update method      Time    Convergence         Total energy    Change
  ------------------------------------------------------------------------------
     1 NoMix/Diag. 0.30E+00    1.0     0.12312695     -2538.0190324131 -2.54E+03
     2 Broy./Diag. 0.30E+00    1.4     0.13287114     -2538.2648498578 -2.46E-01
     3 Broy./Diag. 0.30E+00    1.4     0.13179120     -2538.2335455962  3.13E-02
     4 Broy./Diag. 0.30E+00    1.4     0.01695251     -2538.1190059474  1.15E-01
     5 Broy./Diag. 0.30E+00    1.4     0.01274386     -2538.1334140074 -1.44E-02
     6 Broy./Diag. 0.30E+00    1.4     0.00714463     -2538.0005598181  1.33E-01
     7 Broy./Diag. 0.30E+00    1.4     0.00426476     -2538.1254345712 -1.25E-01
     8 Broy./Diag. 0.30E+00    1.4     0.00285842     -2538.0412931671  8.41E-02
     9 Broy./Diag. 0.30E+00    1.4     0.00187921     -2538.0710434863 -2.98E-02
    10 Broy./Diag. 0.30E+00    1.4     0.00142903     -2538.0650303495  6.01E-03
    11 Broy./Diag. 0.30E+00    1.4     0.00100388     -2538.0702877676 -5.26E-03
    12 Broy./Diag. 0.30E+00    1.4     0.00089770     -2538.0708893826 -6.02E-04
    13 Broy./Diag. 0.30E+00    1.4     0.00152822     -2538.0676290545  3.26E-03
    14 Broy./Diag. 0.30E+00    1.4     0.00061214     -2538.0604439760  7.19E-03
    15 Broy./Diag. 0.30E+00    1.4     0.00063320     -2538.0611970399 -7.53E-04
    16 Broy./Diag. 0.30E+00    1.4     0.00044429     -2538.0633902556 -2.19E-03
    17 Broy./Diag. 0.30E+00    1.4     0.00041403     -2538.0628478097  5.42E-04
    18 Broy./Diag. 0.30E+00    1.4     0.00037984     -2538.0680374178 -5.19E-03
    19 Broy./Diag. 0.30E+00    1.4     0.00030638     -2538.0671519139  8.86E-04
    20 Broy./Diag. 0.30E+00    1.4     0.00025497     -2538.0712857132 -4.13E-03
    21 Broy./Diag. 0.30E+00    1.4     0.00020606     -2538.0689015139  2.38E-03
    22 Broy./Diag. 0.30E+00    1.4     0.00015592     -2538.0705953271 -1.69E-03
    23 Broy./Diag. 0.30E+00    1.4     0.00008878     -2538.0678677329  2.73E-03
    24 Broy./Diag. 0.30E+00    1.4     0.00009196     -2538.0683698294 -5.02E-04
    25 Broy./Diag. 0.30E+00    1.4     0.00010033     -2538.0676435345  7.26E-04
    26 Broy./Diag. 0.30E+00    1.4     0.00008217     -2538.0671114481  5.32E-04
    27 Broy./Diag. 0.30E+00    1.4     0.00009031     -2538.0673188500 -2.07E-04
    28 Broy./Diag. 0.30E+00    1.4     0.00006275     -2538.0673120811  6.77E-06
    29 Broy./Diag. 0.30E+00    1.4     0.00006075     -2538.0677782029 -4.66E-04
    30 Broy./Diag. 0.30E+00    1.4     0.00005313     -2538.0672173848  5.61E-04
    31 Broy./Diag. 0.30E+00    1.4     0.00004652     -2538.0679856757 -7.68E-04
    32 Broy./Diag. 0.30E+00    1.4     0.00004477     -2538.0676571328  3.29E-04
    33 Broy./Diag. 0.30E+00    1.4     0.00003017     -2538.0681824923 -5.25E-04
    34 Broy./Diag. 0.30E+00    1.4     0.00002785     -2538.0677781748  4.04E-04
    35 Broy./Diag. 0.30E+00    1.4     0.00002995     -2538.0678341867 -5.60E-05
    36 Broy./Diag. 0.30E+00    1.4     0.00002220     -2538.0677947055  3.95E-05
    37 Broy./Diag. 0.30E+00    1.4     0.00002343     -2538.0676567764  1.38E-04
    38 Broy./Diag. 0.30E+00    1.4     0.00002376     -2538.0676216088  3.52E-05
    39 Broy./Diag. 0.30E+00    1.4     0.00002079     -2538.0674777103  1.44E-04
    40 Broy./Diag. 0.30E+00    1.4     0.00001665     -2538.0676860850 -2.08E-04
    41 Broy./Diag. 0.30E+00    1.4     0.00001470     -2538.0675089611  1.77E-04
    42 Broy./Diag. 0.30E+00    1.4     0.00001041     -2538.0677049306 -1.96E-04
    43 Broy./Diag. 0.30E+00    1.5     0.00000909     -2538.0676089034  9.60E-05
    44 Broy./Diag. 0.30E+00    1.4     0.00001063     -2538.0677591796 -1.50E-04
    45 Broy./Diag. 0.30E+00    1.4     0.00001055     -2538.0677290462  3.01E-05
    46 Broy./Diag. 0.30E+00    1.4     0.00000780     -2538.0677371055 -8.06E-06
    47 Broy./Diag. 0.30E+00    1.4     0.00000533     -2538.0677533258 -1.62E-05
    48 Broy./Diag. 0.30E+00    1.4     0.00000747     -2538.0677196781  3.36E-05
    49 Broy./Diag. 0.30E+00    1.4     0.00000635     -2538.0677320617 -1.24E-05
    50 Broy./Diag. 0.30E+00    1.4     0.00000642     -2538.0676587764  7.33E-05
    51 Broy./Diag. 0.30E+00    1.4     0.00000657     -2538.0677262531 -6.75E-05
    52 Broy./Diag. 0.30E+00    1.4     0.00000452     -2538.0676325289  9.37E-05
    53 Broy./Diag. 0.30E+00    1.4     0.00000418     -2538.0676865640 -5.40E-05
    54 Broy./Diag. 0.30E+00    1.4     0.00000404     -2538.0676332835  5.33E-05
    55 Broy./Diag. 0.30E+00    1.4     0.00000342     -2538.0676635055 -3.02E-05
    56 Broy./Diag. 0.30E+00    1.4     0.00000281     -2538.0676701719 -6.67E-06
    57 Broy./Diag. 0.30E+00    1.4     0.00000205     -2538.0676734275 -3.26E-06
    58 Broy./Diag. 0.30E+00    1.4     0.00000241     -2538.0676921789 -1.88E-05
    59 Broy./Diag. 0.30E+00    1.4     0.00000253     -2538.0676866334  5.55E-06
    60 Broy./Diag. 0.30E+00    1.4     0.00000225     -2538.0677069367 -2.03E-05
    61 Broy./Diag. 0.30E+00    1.4     0.00000201     -2538.0676762976  3.06E-05
    62 Broy./Diag. 0.30E+00    1.4     0.00000132     -2538.0676955806 -1.93E-05
    63 Broy./Diag. 0.30E+00    1.4     0.00000160     -2538.0676736760  2.19E-05
    64 Broy./Diag. 0.30E+00    1.5     0.00000112     -2538.0676882468 -1.46E-05
    65 Broy./Diag. 0.30E+00    1.4     0.00000129     -2538.0676758747  1.24E-05
    66 Broy./Diag. 0.30E+00    1.4     0.00000090     -2538.0676751378  7.37E-07

  *** SCF run converged in    66 steps ***


  Electronic density on regular grids:       -968.0000000012       -0.0000000012
  Core density on regular grids:              967.9999999998       -0.0000000002
  Total charge density on r-space grids:       -0.0000000014
  Total charge density g-space grids:          -0.0000000014

  Overlap energy of the core charge distribution:               0.00001067490336
  Self energy of the core charge distribution:              -4440.62962420003350
  Core Hamiltonian energy:                                   1439.81941162262410
  Hartree energy:                                             901.57450058943277
  Exchange-correlation energy:                               -436.68105689619347
  Dispersion energy:                                           -2.11839646067448
  Electronic entropic energy:                                  -0.03252047533985
  Fermi energy:                                                 0.00922903835203

  Total energy:                                             -2538.06767513784644

 The electron density is written in cube file format to the file:

 cp2k-ELECTRON_DENSITY-1_0.cube

 !-----------------------------------------------------------------------------!
                     Mulliken Population Analysis

 #  Atom  Element  Kind  Atomic population                           Net charge
       1     Pt       1         10.055376                             -0.055376
       2     Pt       1         10.054819                             -0.054819
       3     Pt       1         10.054692                             -0.054692
       4     Pt       1         10.055115                             -0.055115
       5     Pt       1         10.054960                             -0.054960
       6     Pt       1         10.054928                             -0.054928
       7     Pt       1         10.055265                             -0.055265
       8     Pt       1         10.055193                             -0.055193
       9     Pt       1         10.054765                             -0.054765
      10     Pt       1         10.055901                             -0.055901
      11     Pt       1         10.055857                             -0.055857
      12     Pt       1         10.054977                             -0.054977
      13     Pt       1         10.055184                             -0.055184
      14     Pt       1         10.055316                             -0.055316
      15     Pt       1         10.054243                             -0.054243
      16     Pt       1         10.055296                             -0.055296
      17     Pt       1          9.972214                              0.027786
      18     Pt       1          9.971965                              0.028035
      19     Pt       1          9.972060                              0.027940
      20     Pt       1          9.971897                              0.028103
      21     Pt       1          9.972127                              0.027873
      22     Pt       1          9.972291                              0.027709
      23     Pt       1          9.972295                              0.027705
      24     Pt       1          9.972059                              0.027941
      25     Pt       1          9.971969                              0.028031
      26     Pt       1          9.972417                              0.027583
      27     Pt       1          9.972236                              0.027764
      28     Pt       1          9.972390                              0.027610
      29     Pt       1          9.972299                              0.027701
      30     Pt       1          9.972521                              0.027479
      31     Pt       1          9.972418                              0.027582
      32     Pt       1          9.972344                              0.027656
      33     Pt       1          9.972694                              0.027306
      34     Pt       1          9.973397                              0.026603
      35     Pt       1          9.974483                              0.025517
      36     Pt       1          9.973576                              0.026424
      37     Pt       1          9.974952                              0.025048
      38     Pt       1          9.973526                              0.026474
      39     Pt       1          9.973568                              0.026432
      40     Pt       1          9.974947                              0.025053
      41     Pt       1          9.974082                              0.025918
      42     Pt       1          9.973551                              0.026449
      43     Pt       1          9.974168                              0.025832
      44     Pt       1          9.973301                              0.026699
      45     Pt       1          9.973354                              0.026646
      46     Pt       1          9.973334                              0.026666
      47     Pt       1          9.973463                              0.026537
      48     Pt       1          9.973379                              0.026621
      49     Pt       1          9.973594                              0.026406
      50     Pt       1          9.972825                              0.027175
      51     Pt       1          9.972901                              0.027099
      52     Pt       1          9.973421                              0.026579
      53     Pt       1          9.972464                              0.027536
      54     Pt       1          9.974823                              0.025177
      55     Pt       1          9.973579                              0.026421
      56     Pt       1          9.974679                              0.025321
      57     Pt       1          9.973377                              0.026623
      58     Pt       1          9.973762                              0.026238
      59     Pt       1          9.973720                              0.026280
      60     Pt       1          9.973398                              0.026602
      61     Pt       1          9.974242                              0.025758
      62     Pt       1          9.973722                              0.026278
      63     Pt       1          9.975465                              0.024535
      64     Pt       1          9.973522                              0.026478
      65     Pt       1          9.972151                              0.027849
      66     Pt       1          9.972080                              0.027920
      67     Pt       1          9.973762                              0.026238
      68     Pt       1          9.972572                              0.027428
      69     Pt       1          9.972222                              0.027778
      70     Pt       1          9.972683                              0.027317
      71     Pt       1          9.970128                              0.029872
      72     Pt       1          9.972703                              0.027297
      73     Pt       1          9.971893                              0.028107
      74     Pt       1          9.973933                              0.026067
      75     Pt       1          9.971473                              0.028527
      76     Pt       1          9.973605                              0.026395
      77     Pt       1          9.972408                              0.027592
      78     Pt       1          9.971583                              0.028417
      79     Pt       1          9.972536                              0.027464
      80     Pt       1          9.972418                              0.027582
      81     Pt       1         10.058898                             -0.058898
      82     Pt       1         10.061328                             -0.061328
      83     Pt       1         10.066304                             -0.066304
      84     Pt       1         10.057668                             -0.057668
      85     Pt       1         10.063186                             -0.063186
      86     Pt       1         10.081388                             -0.081388
      87     Pt       1         10.055354                             -0.055354
      88     Pt       1         10.059494                             -0.059494
      89     Pt       1         10.059327                             -0.059327
      90     Pt       1         10.070717                             -0.070717
      91     Pt       1          9.995930                              0.004070
      92     Pt       1         10.044751                             -0.044751
      93     Pt       1         10.062930                             -0.062930
      94     Pt       1         10.082043                             -0.082043
      95     Pt       1         10.056240                             -0.056240
      96     Pt       1         10.059270                             -0.059270
      97     O        2          6.196182                             -0.196182
      98     H        3          0.857066                              0.142934
      99     H        3          0.857111                              0.142889
 # Total charge                            968.000000                  0.000000

 !-----------------------------------------------------------------------------!

 !-----------------------------------------------------------------------------!
                           Hirshfeld Charges

  #Atom  Element  Kind  Ref Charge     Population                    Net charge
      1       Pt     1      10.000         10.016                        -0.016
      2       Pt     1      10.000         10.015                        -0.015
      3       Pt     1      10.000         10.015                        -0.015
      4       Pt     1      10.000         10.015                        -0.015
      5       Pt     1      10.000         10.015                        -0.015
      6       Pt     1      10.000         10.015                        -0.015
      7       Pt     1      10.000         10.016                        -0.016
      8       Pt     1      10.000         10.016                        -0.016
      9       Pt     1      10.000         10.015                        -0.015
     10       Pt     1      10.000         10.017                        -0.017
     11       Pt     1      10.000         10.017                        -0.017
     12       Pt     1      10.000         10.015                        -0.015
     13       Pt     1      10.000         10.016                        -0.016
     14       Pt     1      10.000         10.016                        -0.016
     15       Pt     1      10.000         10.015                        -0.015
     16       Pt     1      10.000         10.015                        -0.015
     17       Pt     1      10.000          9.987                         0.013
     18       Pt     1      10.000          9.987                         0.013
     19       Pt     1      10.000          9.987                         0.013
     20       Pt     1      10.000          9.987                         0.013
     21       Pt     1      10.000          9.987                         0.013
     22       Pt     1      10.000          9.987                         0.013
     23       Pt     1      10.000          9.987                         0.013
     24       Pt     1      10.000          9.987                         0.013
     25       Pt     1      10.000          9.987                         0.013
     26       Pt     1      10.000          9.987                         0.013
     27       Pt     1      10.000          9.987                         0.013
     28       Pt     1      10.000          9.987                         0.013
     29       Pt     1      10.000          9.987                         0.013
     30       Pt     1      10.000          9.987                         0.013
     31       Pt     1      10.000          9.987                         0.013
     32       Pt     1      10.000          9.987                         0.013
     33       Pt     1      10.000          9.998                         0.002
     34       Pt     1      10.000          9.998                         0.002
     35       Pt     1      10.000          9.998                         0.002
     36       Pt     1      10.000          9.998                         0.002
     37       Pt     1      10.000          9.998                         0.002
     38       Pt     1      10.000          9.998                         0.002
     39       Pt     1      10.000          9.998                         0.002
     40       Pt     1      10.000          9.998                         0.002
     41       Pt     1      10.000          9.998                         0.002
     42       Pt     1      10.000          9.998                         0.002
     43       Pt     1      10.000          9.998                         0.002
     44       Pt     1      10.000          9.998                         0.002
     45       Pt     1      10.000          9.998                         0.002
     46       Pt     1      10.000          9.998                         0.002
     47       Pt     1      10.000          9.998                         0.002
     48       Pt     1      10.000          9.998                         0.002
     49       Pt     1      10.000          9.998                         0.002
     50       Pt     1      10.000          9.998                         0.002
     51       Pt     1      10.000          9.998                         0.002
     52       Pt     1      10.000          9.998                         0.002
     53       Pt     1      10.000          9.998                         0.002
     54       Pt     1      10.000          9.998                         0.002
     55       Pt     1      10.000          9.998                         0.002
     56       Pt     1      10.000          9.998                         0.002
     57       Pt     1      10.000          9.998                         0.002
     58       Pt     1      10.000          9.998                         0.002
     59       Pt     1      10.000          9.998                         0.002
     60       Pt     1      10.000          9.998                         0.002
     61       Pt     1      10.000          9.998                         0.002
     62       Pt     1      10.000          9.998                         0.002
     63       Pt     1      10.000          9.998                         0.002
     64       Pt     1      10.000          9.998                         0.002
     65       Pt     1      10.000          9.987                         0.013
     66       Pt     1      10.000          9.988                         0.012
     67       Pt     1      10.000          9.988                         0.012
     68       Pt     1      10.000          9.987                         0.013
     69       Pt     1      10.000          9.987                         0.013
     70       Pt     1      10.000          9.988                         0.012
     71       Pt     1      10.000          9.988                         0.012
     72       Pt     1      10.000          9.987                         0.013
     73       Pt     1      10.000          9.987                         0.013
     74       Pt     1      10.000          9.988                         0.012
     75       Pt     1      10.000          9.988                         0.012
     76       Pt     1      10.000          9.987                         0.013
     77       Pt     1      10.000          9.988                         0.012
     78       Pt     1      10.000          9.987                         0.013
     79       Pt     1      10.000          9.987                         0.013
     80       Pt     1      10.000          9.988                         0.012
     81       Pt     1      10.000         10.018                        -0.018
     82       Pt     1      10.000         10.022                        -0.022
     83       Pt     1      10.000         10.025                        -0.025
     84       Pt     1      10.000         10.019                        -0.019
     85       Pt     1      10.000         10.023                        -0.023
     86       Pt     1      10.000         10.068                        -0.068
     87       Pt     1      10.000         10.031                        -0.031
     88       Pt     1      10.000         10.017                        -0.017
     89       Pt     1      10.000         10.021                        -0.021
     90       Pt     1      10.000         10.063                        -0.063
     91       Pt     1      10.000         10.098                        -0.098
     92       Pt     1      10.000         10.018                        -0.018
     93       Pt     1      10.000         10.023                        -0.023
     94       Pt     1      10.000         10.069                        -0.069
     95       Pt     1      10.000         10.031                        -0.031
     96       Pt     1      10.000         10.017                        -0.017
     97       O      2       6.000          6.797                        -0.797
     98       H      3       1.000          0.432                         0.568
     99       H      3       1.000          0.432                         0.568

  Total Charge                                                            0.001
 !-----------------------------------------------------------------------------!

 LOCALIZE| The spread relative to a set of orbitals is computed
 LOCALIZE| Orbitals to be localized: All orbitals
 LOCALIZE| If fractional occupation, fully occupied MOs are those 
           within occupation tolerance of       0.00000001
 LOCALIZE| Spread defined by the Berry phase operator 
 LOCALIZE| Optimal unitary transformation generated by Jacobi algorithm

         Restart file not available filename=<cp2k-LOC_HOMO-1_0.wfn>

 LOCALIZATION|    The orbitals to be localized are read from localization restart file.

 LOCALIZATION| Spin    1 The first    438 occupied orbitals are localized,
               with energies from    -0.777290 to    -0.009004 [a.u.].

 LOCALIZATION| Computing localization properties for OCCUPIED ORBITALS. Spin:  1
    Spread Functional     sum_in -w_i ln(|z_in|^2)    sum_in w_i(1-|z_in|^2)
    Initial Spread (Berry) :            121303.0605211051    29875.6818083077
[...]
     76      1      Pt         -0.00000595     0.00036964    -0.00989039
     77      1      Pt         -0.00008686     0.00056338    -0.00987741
     78      1      Pt         -0.00004576     0.00068588    -0.00969444
     79      1      Pt          0.00002012     0.00056495    -0.00954794
     80      1      Pt          0.00010620     0.00057659    -0.00992925
     81      1      Pt         -0.00002758     0.00116029     0.01289603
     82      1      Pt          0.00014882     0.00126370     0.01260583
     83      1      Pt         -0.00016639     0.00132630     0.01366830
     84      1      Pt          0.00008189     0.00123650     0.01250689
     85      1      Pt          0.00046180     0.00140861     0.01351471
     86      1      Pt         -0.00054674     0.00013632     0.01179114
     87      1      Pt          0.00047067     0.00000409     0.01160351
     88      1      Pt         -0.00031448     0.00124307     0.01324593
     89      1      Pt          0.00008107     0.00132019     0.01234629
     90      1      Pt         -0.00101172     0.00134625     0.01198177
     91      1      Pt         -0.00000343     0.00122297     0.02002111
     92      1      Pt          0.00114330     0.00131933     0.01152513
     93      1      Pt          0.00041566     0.00116209     0.01330499
     94      1      Pt         -0.00074433     0.00238594     0.01205587
     95      1      Pt          0.00059726     0.00258924     0.01197357
     96      1      Pt         -0.00021763     0.00122510     0.01311574
     97      2      O           0.00454499    -0.00001261     0.00006444
     98      3      H          -0.00221715     0.00464124    -0.00096648
     99      3      H          -0.00223071    -0.00463292    -0.00096349
 SUM OF ATOMIC FORCES           0.00020421     0.00000049     0.00297137     0.00297838

 -------------------------------------------------------------------------------
 -                                                                             -
 -                                DBCSR STATISTICS                             -
 -                                                                             -
 -------------------------------------------------------------------------------
 COUNTER                                    TOTAL       BLAS       SMM       ACC
 flops     5 x    24 x     5                 4800       0.0%    100.0%      0.0%
 flops     5 x    24 x    13                 6240       0.0%    100.0%      0.0%
 flops    13 x    24 x     5                 6240       0.0%    100.0%      0.0%
 flops    13 x    24 x    13                 8112       0.0%    100.0%      0.0%
 flops     5 x    22 x     5                26400       0.0%    100.0%      0.0%
 flops     5 x    22 x    13                34320       0.0%    100.0%      0.0%
 flops    13 x    22 x     5                34320       0.0%    100.0%      0.0%
 flops    13 x    22 x    13                44616       0.0%    100.0%      0.0%
 flops     5 x    32 x     5               691200       0.0%    100.0%      0.0%
 flops     5 x    24 x    20               840000       0.0%    100.0%      0.0%
 flops    20 x    24 x     5               840000       0.0%    100.0%      0.0%
 flops     5 x    13 x    96               848640       0.0%    100.0%      0.0%
 flops    13 x     5 x    96               848640       0.0%    100.0%      0.0%
 flops     5 x    32 x    13               898560       0.0%    100.0%      0.0%
 flops    13 x    32 x     5               898560       0.0%    100.0%      0.0%
 flops    20 x    24 x    13               948480       0.0%    100.0%      0.0%
 flops    13 x    24 x    20               948480       0.0%    100.0%      0.0%
 flops     5 x     5 x    96               979200       0.0%    100.0%      0.0%
 flops     5 x    13 x   120              1060800       0.0%    100.0%      0.0%
 flops    13 x     5 x   120              1060800       0.0%    100.0%      0.0%
 flops    13 x    32 x    13              1168128       0.0%    100.0%      0.0%
 flops     5 x     5 x   120              1224000       0.0%    100.0%      0.0%
 flops    13 x    13 x    96              2206464       0.0%    100.0%      0.0%
 flops    13 x    13 x   120              2758080       0.0%    100.0%      0.0%
 flops     5 x    22 x    20              4620000       0.0%    100.0%      0.0%
 flops    20 x    22 x     5              4620000       0.0%    100.0%      0.0%
 flops    20 x    22 x    13              5216640       0.0%    100.0%      0.0%
 flops    13 x    22 x    20              5216640       0.0%    100.0%      0.0%
 flops     5 x    13 x   128              6789120       0.0%    100.0%      0.0%
 flops    13 x     5 x   128              6789120       0.0%    100.0%      0.0%
 flops     5 x     5 x   128              7833600       0.0%    100.0%      0.0%
 flops    13 x    13 x   128             17651712       0.0%    100.0%      0.0%
 flops    20 x     5 x    96            113587200       0.0%    100.0%      0.0%
 flops     5 x    20 x    96            114892800       0.0%    100.0%      0.0%
 flops    20 x    32 x     5            120960000       0.0%    100.0%      0.0%
 flops     5 x    32 x    20            120960000       0.0%    100.0%      0.0%
 flops    20 x    13 x    96            125598720       0.0%    100.0%      0.0%
 flops    13 x    20 x    96            132387840       0.0%    100.0%      0.0%
 flops    20 x    32 x    13            136581120       0.0%    100.0%      0.0%
 flops    13 x    32 x    20            136581120       0.0%    100.0%      0.0%
 flops    20 x     5 x   120            141984000       0.0%    100.0%      0.0%
 flops     5 x    20 x   120            143616000       0.0%    100.0%      0.0%
 flops    20 x    13 x   120            156998400       0.0%    100.0%      0.0%
 flops    13 x    20 x   120            165484800       0.0%    100.0%      0.0%
 flops    20 x    24 x    20            176947200       0.0%    100.0%      0.0%
 flops    20 x     5 x   128            908697600       0.0%    100.0%      0.0%
 flops     5 x    20 x   128            919142400       0.0%    100.0%      0.0%
 flops    20 x    22 x    20            973209600       0.0%    100.0%      0.0%
 flops    20 x    13 x   128           1004789760       0.0%    100.0%      0.0%
 flops    13 x    20 x   128           1059102720       0.0%    100.0%      0.0%
 flops    20 x    20 x    96          24315494400       0.0%    100.0%      0.0%
 flops    20 x    32 x    20          25480396800       0.0%    100.0%      0.0%
 flops    20 x    20 x   120          30394368000       0.0%    100.0%      0.0%
 flops    20 x    20 x   128         194523955200       0.0%    100.0%      0.0%
 flops inhomo. stacks                           0       0.0%      0.0%      0.0%
 flops total                       281.442858E+09       0.0%    100.0%      0.0%
 flops max/rank                      9.463479E+09       0.0%    100.0%      0.0%
 matmuls inhomo. stacks                         0       0.0%      0.0%      0.0%
 matmuls total                            3791277       0.0%    100.0%      0.0%
 number of processed stacks                 45299       0.0%    100.0%      0.0%
 average stack size                                     0.0      83.7       0.0
 marketing flops                   293.231067E+09
 -------------------------------------------------------------------------------
 # multiplications                             75
 max memory usage/rank             336.007168E+06
 # max total images/rank                        2
 # max 3D layers                                1
 # MPI messages exchanged                   31200
 MPI messages size (bytes):
  total size                        12.043722E+09
  min size                          61.440000E+03
  max size                         985.352000E+03
  average size                     386.016719E+03
 MPI breakdown and total messages size (bytes):
             size <=      128                   0                        0
       128 < size <=     8192                   0                        0
      8192 < size <=    32768                   0                        0
     32768 < size <=   131072                1152                122548896
    131072 < size <=  4194304               30048              11921175176
   4194304 < size <= 16777216                   0                        0
  16777216 < size                               0                        0
 -------------------------------------------------------------------------------

 *** WARNING in dbcsr_mm.F:295 :: Using a non-square number of MPI ranks ***
 *** might lead to poor performance. Used ranks: 32 Suggested: 36 64     ***

 -------------------------------------------------------------------------------
 -                                                                             -
 -                      DBCSR MESSAGE PASSING PERFORMANCE                      -
 -                                                                             -
 -------------------------------------------------------------------------------
 ROUTINE             CALLS      AVE VOLUME [Bytes]
 MP_Group               75
 MP_Bcast               55                     12.
 MP_Allreduce          622                     12.
 MP_Alltoall          2039                 265525.
 MP_Wait              4800
 MP_ISend             2400                 168894.
 MP_IRecv             2400                 163320.
 MP_Memory            8388
 -------------------------------------------------------------------------------

 MEMORY| Estimated peak process memory [MiB]                                 321

 -------------------------------------------------------------------------------
 ----                             MULTIGRID INFO                            ----
 -------------------------------------------------------------------------------
 count for grid        1:         253275          cutoff [a.u.]          200.00
 count for grid        2:         270125          cutoff [a.u.]           66.67
 count for grid        3:         158094          cutoff [a.u.]           22.22
 count for grid        4:         114175          cutoff [a.u.]            7.41
 total gridlevel count  :         795669

 -------------------------------------------------------------------------------
 -                                                                             -
 -                         MESSAGE PASSING PERFORMANCE                         -
 -                                                                             -
 -------------------------------------------------------------------------------

 ROUTINE             CALLS      AVE VOLUME [Bytes]
 MP_Group                4
 MP_Bcast             1892                 303805.
 MP_Allreduce         1884                   5643.
 MP_Sync                 5
 MP_Alltoall          1491                9433746.
 MP_SendRecv         27404                 168981.
 MP_ISendRecv         8308                  66000.
 MP_Wait             19732
 MP_ISend            10336                 180180.
 MP_IRecv            10336                 180180.
 MP_Recv               150                 497408.
 MP_Write_All            3                1119280.
 -------------------------------------------------------------------------------


 -------------------------------------------------------------------------------
 -                                                                             -
 -                           R E F E R E N C E S                               -
 -                                                                             -
 -------------------------------------------------------------------------------
 
 CP2K version 7.1, the CP2K developers group (2019).
 CP2K is freely available from https://www.cp2k.org/ .

 Schuett, Ole; Messmer, Peter; Hutter, Juerg; VandeVondele, Joost. 
 Electronic Structure Calculations on Graphics Processing Units, John
 Wiley & Sons, Ltd, 173-190 (2016). 
 GPU-Accelerated Sparse Matrix-Matrix Multiplication for
 Linear Scaling Density Functional Theory.
 https://dx.doi.org/10.1002/9781118670712.ch8

 Borstnik, U; VandeVondele, J; Weber, V; Hutter, J. 
 PARALLEL COMPUTING, 40 (5-6), 47-58 (2014). 
 Sparse matrix multiplication: The distributed block-compressed sparse
 row library.
 https://dx.doi.org/10.1016/j.parco.2014.03.012

 Hutter, J; Iannuzzi, M; Schiffmann, F; VandeVondele, J. 
 WIREs Comput Mol Sci., 4 (1), 15-25 (2014). 
 CP2K: atomistic simulations of condensed matter systems.
 https://dx.doi.org/10.1002/wcms.1159

 Marek, A; Blum, V; Johanni, R; Havu, V; Lang, B; Auckenthaler, T;
 Heinecke, A; Bungartz, H; Lederer, H. 
 Journal of Physics: Condensed Matter, 26 (21), (2014). 
 The ELPA library: scalable parallel eigenvalue solutions for
 electronic structure
 theory and computational science.
 https://dx.doi.org/10.1088/0953-8984/26/21/213201

 Grimme, S; Ehrlich, S; Goerigk, L. 
 JOURNAL OF COMPUTATIONAL CHEMISTRY, 32, 1456 (2011). 
 Effect of the damping function in dispersion corrected density functional theory.
 https://dx.doi.org/10.1002/jcc.21759

 Grimme, S; Antony, J; Ehrlich, S; Krieg, H. 
 JOURNAL OF CHEMICAL PHYSICS, 132 (15), 154104 (2010). 
 A consistent and accurate ab initio parametrization of density
 functional dispersion correction (DFT-D) for the 94 elements H-Pu.
 https://dx.doi.org/10.1063/1.3382344

 VandeVondele, J; Hutter, J. 
 JOURNAL OF CHEMICAL PHYSICS, 127 (11), 114105 (2007). 
 Gaussian basis sets for accurate calculations on molecular systems in
 gas and condensed phases.
 https://dx.doi.org/10.1063/1.2770708

 Krack, M. 
 THEORETICAL CHEMISTRY ACCOUNTS, 114 (1-3), 145-152 (2005). 
 Pseudopotentials for H to Kr optimized for gradient-corrected
 exchange-correlation functionals.
 https://dx.doi.org/10.1007/s00214-005-0655-y

 VandeVondele, J; Krack, M; Mohamed, F; Parrinello, M; Chassaing, T;
 Hutter, J. COMPUTER PHYSICS COMMUNICATIONS, 167 (2), 103-128 (2005). 
 QUICKSTEP: Fast and accurate density functional calculations using a
 mixed Gaussian and plane waves approach.
 https://dx.doi.org/10.1016/j.cpc.2004.12.014

 Frigo, M; Johnson, SG. 
 PROCEEDINGS OF THE IEEE, 93 (2), 216-231 (2005). 
 The design and implementation of FFTW3.
 https://dx.doi.org/10.1109/JPROC.2004.840301

 Hartwigsen, C; Goedecker, S; Hutter, J. 
 PHYSICAL REVIEW B, 58 (7), 3641-3662 (1998). 
 Relativistic separable dual-space Gaussian pseudopotentials from H to Rn.
 https://dx.doi.org/10.1103/PhysRevB.58.3641

 Lippert, G; Hutter, J; Parrinello, M. 
 MOLECULAR PHYSICS, 92 (3), 477-487 (1997). 
 A hybrid Gaussian and plane wave density functional scheme.
 https://dx.doi.org/10.1080/002689797170220

 Perdew, JP; Burke, K; Ernzerhof, M. 
 PHYSICAL REVIEW LETTERS, 77 (18), 3865-3868 (1996). 
 Generalized gradient approximation made simple.
 https://dx.doi.org/10.1103/PhysRevLett.77.3865

 Goedecker, S; Teter, M; Hutter, J. 
 PHYSICAL REVIEW B, 54 (3), 1703-1710 (1996). 
 Separable dual-space Gaussian pseudopotentials.
 https://dx.doi.org/10.1103/PhysRevB.54.1703


 -------------------------------------------------------------------------------
 -                                                                             -
 -                                T I M I N G                                  -
 -                                                                             -
 -------------------------------------------------------------------------------
 SUBROUTINE                       CALLS  ASD         SELF TIME        TOTAL TIME
                                MAXIMUM       AVERAGE  MAXIMUM  AVERAGE  MAXIMUM
 CP2K                                 1  1.0    0.011    0.018  126.723  126.730
 qs_forces                            1  2.0    0.000    0.000  126.283  126.285
 qs_energies                          1  3.0    0.000    0.000  123.505  123.507
 scf_env_do_scf                       1  4.0    0.000    0.000   94.341   94.353
 scf_env_do_scf_inner_loop           66  5.0    0.003    0.011   94.338   94.349
 rebuild_ks_matrix                   67  7.0    0.000    0.000   51.142   51.154
 qs_ks_build_kohn_sham_matrix        67  8.0    0.007    0.009   51.142   51.153
 qs_ks_update_qs_env                 66  6.0    0.000    0.000   50.255   50.265
 scf_post_calculation_gpw             1  4.0    0.000    0.000   27.765   27.770
 pw_transfer                       1340 10.4    0.069    0.076   27.082   27.353
 fft_wrap_pw1pw2                   1206 11.5    0.011    0.012   26.727   26.989
 get_localization_info                1  5.0    0.000    0.000   26.884   26.891
 qs_loc_driver                        1  6.0    0.000    0.000   26.884   26.891
 optimize_loc_berry                   1  7.0    0.015    0.016   26.876   26.877
 jacobi_rot_para                      1  8.0   21.378   22.823   26.789   26.789
 fft_wrap_pw1pw2_200                804 12.5    2.170    2.273   25.779   26.044
 qs_rho_update_rho                   67  6.0    0.000    0.000   25.521   25.555
 calculate_rho_elec                  67  7.0   10.993   18.214   25.521   25.554
 sum_up_and_integrate                67  9.0    0.066    0.075   25.298   25.313
 integrate_v_rspace                  67 10.0   11.638   19.497   25.232   25.250
 qs_vxc_create                       67  9.0    0.002    0.002   22.475   22.604
 xc_vxc_pw_create                    67 10.0    0.262    0.333   22.473   22.603
 fft3d_ps                          1206 13.5   13.054   14.291   19.776   20.133
 density_rs2pw                       67  8.0    0.003    0.003   13.639   16.958
 rs_pw_transfer                     540 10.5    0.005    0.006   11.616   14.783
 xc_rho_set_and_dset_create          67 11.0    0.094    0.108   11.918   12.804
 mp_alltoall_d11v                  1009 10.4    8.257   11.684    8.257   11.684
 rs_distribute_matrix               135  9.5    0.115    0.291    8.310   11.615
 rs_pw_transfer_RS2PW_200            69 10.0    0.841    1.166    8.294   11.447
 mp_waitany                       10336 12.4    7.935   11.234    7.935   11.234
 qs_scf_new_mos                      66  6.0    0.001    0.001   11.209   11.229
 eigensolver                         66  7.0    0.004    0.005    9.881    9.901
 cp_fm_diag_elpa                     67  8.0    0.000    0.001    8.061    8.067
 cp_fm_diag_elpa_base                67  9.0    7.858    7.864    8.060    8.066
 gspace_mixing                       65  6.0    0.076    0.089    7.629    7.630
 potential_pw2rs                     67 11.0    0.007    0.008    5.474    5.480
 broyden_mixing                      65  7.0    5.382    5.421    5.469    5.477
 mp_allgather_d23                 13640  9.0    3.624    5.373    3.624    5.373
 xc_functional_eval                  67 12.0    0.000    0.001    4.326    5.358
 pbe_lda_eval                        67 13.0    4.326    5.357    4.326    5.357
 mp_alltoall_z22v                  1206 15.5    3.940    4.978    3.940    4.978
 yz_to_x                            470 14.3    1.054    1.194    3.262    3.759
 x_to_yz                            602 14.6    1.675    2.192    3.402    3.639
 pw_scatter_p                       669 13.8    2.691    2.861    2.691    2.861
 -------------------------------------------------------------------------------

 The number of warnings for this run is : 1
 
 -------------------------------------------------------------------------------
  **** **** ******  **  PROGRAM ENDED AT                 2024-11-01 22:26:48.319
 ***** ** ***  *** **   PROGRAM RAN ON                                   c53-012
 **    ****   ******    PROGRAM RAN BY                                     jxzhu
 ***** **    ** ** **   PROGRAM PROCESS ID                                258577
  **** **  *******  **  PROGRAM STOPPED IN /data/jxzhu/nnp/dp_workdir/d1f764b96e
                                           9a01b62c3e35b0c4f5198f3ba3ed59/calc.0
                                           00/task.000.000006
