 DBCSR| CPU Multiplication driver                                           XSMM
 DBCSR| Multrec recursion limit                                              512
 DBCSR| Multiplication stack size                                           1000
 DBCSR| Maximum elements for images                                    UNLIMITED
 DBCSR| Multiplicative factor virtual images                                   1
 DBCSR| Use multiplication densification                                       T
 DBCSR| Multiplication size stacks                                             3
 DBCSR| Use memory pool for CPU allocation                                     F
 DBCSR| Number of 3D layers                                               SINGLE
 DBCSR| Use MPI memory allocation                                              F
 DBCSR| Use RMA algorithm                                                      F
 DBCSR| Use Communication thread                                               T
 DBCSR| Communication thread load                                             87
 DBCSR| MPI: My node id                                                        0
 DBCSR| MPI: Number of nodes                                                  64
 DBCSR| OMP: Current number of threads                                         1
 DBCSR| OMP: Max number of threads                                             1
 DBCSR| Split modifier for TAS multiplication algorithm                  1.0E+00


  **** **** ******  **  PROGRAM STARTED AT               2023-11-26 19:10:31.526
 ***** ** ***  *** **   PROGRAM STARTED ON                                 cu054
 **    ****   ******    PROGRAM STARTED BY                                 jxzhu
 ***** **    ** ** **   PROGRAM PROCESS ID                                 63264
  **** **  *******  **  PROGRAM STARTED IN /public/home/jxzhu/tmp_calc/af2075565
                                           805657d94fa4669dad6f4b174b0a4fb/calc/
                                           001300.000/pbc

 CP2K| version string:                                       CP2K version 2022.1
 CP2K| source code revision number:                                  git:2caeb6f
 CP2K| cp2kflags: omp libint fftw3 libxc elpa parallel mpi3 scalapack cosma xsmm
 CP2K|             plumed2 spglib mkl sirius libvori libbqb
 CP2K| is freely available from                            https://www.cp2k.org/
 CP2K| Program compiled at                           Mon Jul 3 17:37:06 CST 2023
 CP2K| Program compiled on                                                 mu003
 CP2K| Program compiled for                                                local
 CP2K| Data directory path                             /public/home/jxzhu/basis/
 CP2K| Input file name                                                 input.inp
 
 GLOBAL| Force Environment number                                              1
 GLOBAL| Basis set file name                                        BASIS_MOLOPT
 GLOBAL| Potential file name                                      GTH_POTENTIALS
 GLOBAL| MM Potential file name                                     MM_POTENTIAL
 GLOBAL| Coordinate file name                                          coord.xyz
 GLOBAL| Method name                                                        CP2K
 GLOBAL| Project name                                                       cp2k
 GLOBAL| Run type                                                   ENERGY_FORCE
 GLOBAL| FFT library                                                       FFTW3
 GLOBAL| Diagonalization library                                            ELPA
 GLOBAL| Minimum number of eigenvectors for ELPA usage                        16
 GLOBAL| Orthonormality check for eigenvectors                          DISABLED
 GLOBAL| Matrix multiplication library                                     COSMA
 GLOBAL| All-to-all communication in single precision                          F
 GLOBAL| FFTs using library dependent lengths                                  F
 GLOBAL| Grid backend                                                       AUTO
 GLOBAL| Global print level                                               MEDIUM
 GLOBAL| MPI I/O enabled                                                       T
 GLOBAL| Total number of message passing processes                            64
 GLOBAL| Number of threads for this process                                    1
 GLOBAL| This output is from process                                           0
 GLOBAL| Stack size for threads created by OpenMP (OMP_STACKSIZE)        default
 GLOBAL| CPU model name                 Intel(R) Xeon(R) Gold 6338 CPU @ 2.00GHz
 GLOBAL| CPUID                                                              1003

 MEMORY| system memory details [Kb]
 MEMORY|                        rank 0           min           max       average
 MEMORY| MemTotal            263619172     263619172     263619172     263619172
 MEMORY| MemFree             209422256     209422256     209422876     209422275
 MEMORY| Buffers                  3320          3320          3320          3320
 MEMORY| Cached                5192396       5192396       5192396       5192396
 MEMORY| Slab                  1930484       1930484       1930484       1930484
 MEMORY| SReclaimable           248044        248044        248044        248044
 MEMORY| MemLikelyFree       214866016     214866016     214866636     214866035


 *** Fundamental physical constants (SI units) ***

 *** Literature: B. J. Mohr and B. N. Taylor,
 ***             CODATA recommended values of the fundamental physical
 ***             constants: 2006, Web Version 5.1
 ***             http://physics.nist.gov/constants

 Speed of light in vacuum [m/s]                             2.99792458000000E+08
 Magnetic constant or permeability of vacuum [N/A**2]       1.25663706143592E-06
 Electric constant or permittivity of vacuum [F/m]          8.85418781762039E-12
 Planck constant (h) [J*s]                                  6.62606896000000E-34
 Planck constant (h-bar) [J*s]                              1.05457162825177E-34
 Elementary charge [C]                                      1.60217648700000E-19
 Electron mass [kg]                                         9.10938215000000E-31
 Electron g factor [ ]                                     -2.00231930436220E+00
 Proton mass [kg]                                           1.67262163700000E-27
 Fine-structure constant                                    7.29735253760000E-03
 Rydberg constant [1/m]                                     1.09737315685270E+07
 Avogadro constant [1/mol]                                  6.02214179000000E+23
 Boltzmann constant [J/K]                                   1.38065040000000E-23
 Atomic mass unit [kg]                                      1.66053878200000E-27
 Bohr radius [m]                                            5.29177208590000E-11

 *** Conversion factors ***

 [u] -> [a.u.]                                              1.82288848426455E+03
 [Angstrom] -> [Bohr] = [a.u.]                              1.88972613288564E+00
 [a.u.] = [Bohr] -> [Angstrom]                              5.29177208590000E-01
 [a.u.] -> [s]                                              2.41888432650478E-17
 [a.u.] -> [fs]                                             2.41888432650478E-02
 [a.u.] -> [J]                                              4.35974393937059E-18
 [a.u.] -> [N]                                              8.23872205491840E-08
 [a.u.] -> [K]                                              3.15774647902944E+05
 [a.u.] -> [kJ/mol]                                         2.62549961709828E+03
 [a.u.] -> [kcal/mol]                                       6.27509468713739E+02
 [a.u.] -> [Pa]                                             2.94210107994716E+13
 [a.u.] -> [bar]                                            2.94210107994716E+08
 [a.u.] -> [atm]                                            2.90362800883016E+08
 [a.u.] -> [eV]                                             2.72113838565563E+01
 [a.u.] -> [Hz]                                             6.57968392072181E+15
 [a.u.] -> [1/cm] (wave numbers)                            2.19474631370540E+05
 [a.u./Bohr**2] -> [1/cm]                                   5.14048714338585E+03
 

 CELL_TOP| Volume [angstrom^3]:                                     10221.806009
 CELL_TOP| Vector a [angstrom    16.869     0.000     0.000   |a| =    16.869000
 CELL_TOP| Vector b [angstrom    -8.434    14.609     0.000   |b| =    16.869015
 CELL_TOP| Vector c [angstrom     0.000     0.000    41.478   |c| =    41.478000
 CELL_TOP| Angle (b,c), alpha [degree]:                                90.000000
 CELL_TOP| Angle (a,c), beta  [degree]:                                90.000000
 CELL_TOP| Angle (a,b), gamma [degree]:                               119.999970
 CELL_TOP| Numerically orthorhombic:                                          NO
 
 GENERATE|  Preliminary Number of Bonds generated:                             0
 GENERATE|  Achieved consistency in connectivity generation.

 CELL| Volume [angstrom^3]:                                         10221.806009
 CELL| Vector a [angstrom]:      16.869     0.000     0.000   |a| =    16.869000
 CELL| Vector b [angstrom]:      -8.434    14.609     0.000   |b| =    16.869015
 CELL| Vector c [angstrom]:       0.000     0.000    41.478   |c| =    41.478000
 CELL| Angle (b,c), alpha [degree]:                                    90.000000
 CELL| Angle (a,c), beta  [degree]:                                    90.000000
 CELL| Angle (a,b), gamma [degree]:                                   119.999970
 CELL| Numerically orthorhombic:                                              NO

 CELL_REF| Volume [angstrom^3]:                                     10221.806009
 CELL_REF| Vector a [angstrom    16.869     0.000     0.000   |a| =    16.869000
 CELL_REF| Vector b [angstrom    -8.434    14.609     0.000   |b| =    16.869015
 CELL_REF| Vector c [angstrom     0.000     0.000    41.478   |c| =    41.478000
 CELL_REF| Angle (b,c), alpha [degree]:                                90.000000
 CELL_REF| Angle (a,c), beta  [degree]:                                90.000000
 CELL_REF| Angle (a,b), gamma [degree]:                               119.999970
 CELL_REF| Numerically orthorhombic:                                          NO

 *******************************************************************************
 *******************************************************************************
 **                                                                           **
 **     #####                         ##              ##                      **
 **    ##   ##            ##          ##              ##                      **
 **   ##     ##                       ##            ######                    **
 **   ##     ##  ##   ##  ##   #####  ##  ##   ####   ##    #####    #####    **
 **   ##     ##  ##   ##  ##  ##      ## ##   ##      ##   ##   ##  ##   ##   **
 **   ##  ## ##  ##   ##  ##  ##      ####     ###    ##   ######   ######    **
 **    ##  ###   ##   ##  ##  ##      ## ##      ##   ##   ##       ##        **
 **     #######   #####   ##   #####  ##  ##  ####    ##    #####   ##        **
 **           ##                                                    ##        **
 **                                                                           **
 **                                                ... make the atoms dance   **
 **                                                                           **
 **            Copyright (C) by CP2K developers group (2000-2022)             **
 **                      J. Chem. Phys. 152, 194103 (2020)                    **
 **                                                                           **
 *******************************************************************************

 DFT| Spin restricted Kohn-Sham (RKS) calculation                            RKS
 DFT| Multiplicity                                                             1
 DFT| Number of spin states                                                    1
 DFT| Charge                                                                   0
 DFT| Self-interaction correction (SIC)                                       NO
 DFT| Cutoffs: density                                              1.000000E-10
 DFT|          gradient                                             1.000000E-10
 DFT|          tau                                                  1.000000E-10
 DFT|          cutoff_smoothing_range                               0.000000E+00
 DFT| XC density smoothing                                                  NONE
 DFT| XC derivatives                                                          PW

 FUNCTIONAL| PBE:
 FUNCTIONAL| J.P.Perdew, K.Burke, M.Ernzerhof, Phys. Rev. Letter, vol. 77, n 18,
 FUNCTIONAL|  pp. 3865-3868, (1996){spin unpolarized}                           

 vdW POTENTIAL|                                                   Pair Potential
 vdW POTENTIAL|          DFT-D3 (Version 3.1)
 vdW POTENTIAL|          Potential Form: S. Grimme et al, JCP 132: 154104 (2010)
 vdW POTENTIAL|          Zero Damping
 vdW POTENTIAL|          Cutoff Radius [Bohr]:                             20.00
 vdW POTENTIAL|          s6 Scaling Factor:                               1.0000
 vdW POTENTIAL|          sr6 Scaling Factor:                              1.2170
 vdW POTENTIAL|          s8 Scaling Factor:                               0.7220
 vdW POTENTIAL|          Cutoff for CN calculation:                   0.1000E-05

 QS| Method:                                                                 GPW
 QS| Density plane wave grid type                        NON-SPHERICAL FULLSPACE
 QS| Number of grid levels:                                                    4
 QS| Density cutoff [a.u.]:                                                200.0
 QS| Multi grid cutoff [a.u.]: 1) grid level                               200.0
 QS|                           2) grid level                                66.7
 QS|                           3) grid level                                22.2
 QS|                           4) grid level                                 7.4
 QS| Grid level progression factor:                                          3.0
 QS| Relative density cutoff [a.u.]:                                        20.0
 QS| Interaction thresholds: eps_pgf_orb:                                3.2E-07
 QS|                         eps_filter_matrix:                          0.0E+00
 QS|                         eps_core_charge:                            1.0E-15
 QS|                         eps_rho_gspace:                             1.0E-13
 QS|                         eps_rho_rspace:                             1.0E-13
 QS|                         eps_gvg_rspace:                             3.2E-07
 QS|                         eps_ppl:                                    1.0E-02
 QS|                         eps_ppnl:                                   3.2E-09


 ATOMIC KIND INFORMATION

  1. Atomic kind: O                                     Number of atoms:     230

     Orbital Basis Set                                        DZVP-MOLOPT-SR-GTH

       Number of orbital shell sets:                                           1
       Number of orbital shells:                                               5
       Number of primitive Cartesian functions:                                5
       Number of Cartesian basis functions:                                   14
       Number of spherical basis functions:                                   13
       Norm type:                                                              2

       Normalised Cartesian orbitals:

                        Set   Shell   Orbital            Exponent    Coefficient

                          1       1    2s               10.389228       0.396646
                                                         3.849621       0.208811
                                                         1.388401      -0.301641
                                                         0.496955      -0.274061
                                                         0.162492      -0.033677

                          1       2    3s               10.389228       0.303673
                                                         3.849621       0.240943
                                                         1.388401      -0.313066
                                                         0.496955      -0.043055
                                                         0.162492       0.213991

                          1       3    3px              10.389228      -1.530415
                                                         3.849621      -1.371928
                                                         1.388401      -0.761951
                                                         0.496955      -0.253695
                                                         0.162492      -0.035541
                          1       3    3py              10.389228      -1.530415
                                                         3.849621      -1.371928
                                                         1.388401      -0.761951
                                                         0.496955      -0.253695
                                                         0.162492      -0.035541
                          1       3    3pz              10.389228      -1.530415
                                                         3.849621      -1.371928
                                                         1.388401      -0.761951
                                                         0.496955      -0.253695
                                                         0.162492      -0.035541

                          1       4    4px              10.389228      -0.565392
                                                         3.849621      -0.038231
                                                         1.388401      -0.382373
                                                         0.496955       0.179070
                                                         0.162492       0.122714
                          1       4    4py              10.389228      -0.565392
                                                         3.849621      -0.038231
                                                         1.388401      -0.382373
                                                         0.496955       0.179070
                                                         0.162492       0.122714
                          1       4    4pz              10.389228      -0.565392
                                                         3.849621      -0.038231
                                                         1.388401      -0.382373
                                                         0.496955       0.179070
                                                         0.162492       0.122714

                          1       5    4dx2             10.389228       1.867377
                                                         3.849621       0.670994
                                                         1.388401       1.353441
                                                         0.496955       0.273538
                                                         0.162492       0.006620
                          1       5    4dxy             10.389228       3.234392
                                                         3.849621       1.162195
                                                         1.388401       2.344229
                                                         0.496955       0.473781
                                                         0.162492       0.011466
                          1       5    4dxz             10.389228       3.234392
                                                         3.849621       1.162195
                                                         1.388401       2.344229
                                                         0.496955       0.473781
                                                         0.162492       0.011466
                          1       5    4dy2             10.389228       1.867377
                                                         3.849621       0.670994
                                                         1.388401       1.353441
                                                         0.496955       0.273538
                                                         0.162492       0.006620
                          1       5    4dyz             10.389228       3.234392
                                                         3.849621       1.162195
                                                         1.388401       2.344229
                                                         0.496955       0.473781
                                                         0.162492       0.011466
                          1       5    4dz2             10.389228       1.867377
                                                         3.849621       0.670994
                                                         1.388401       1.353441
                                                         0.496955       0.273538
                                                         0.162492       0.006620

       Atomic covalent radius [Angstrom]:                                  0.730

       Atomic van der Waals radius [Angstrom]:                             1.520

     GTH Potential information for                                    GTH-PBE-q6

       Description:                       Goedecker-Teter-Hutter pseudopotential
                                           Goedecker et al., PRB 54, 1703 (1996)
                                          Hartwigsen et al., PRB 58, 3641 (1998)
                                                      Krack, TCA 114, 145 (2005)

       Gaussian exponent of the core charge distribution:               8.360253
       Electronic configuration (s p d ...):                               2   4

       Parameters of the local part of the GTH pseudopotential:

                          rloc        C1          C2          C3          C4
                        0.244554  -16.667215    2.487311

       Parameters of the non-local part of the GTH pseudopotential:

                   l      r(l)      h(i,j,l)

                   0    0.220956   18.337458
                   1    0.211332

  2. Atomic kind: H                                     Number of atoms:     460

     Orbital Basis Set                                        DZVP-MOLOPT-SR-GTH

       Number of orbital shell sets:                                           1
       Number of orbital shells:                                               3
       Number of primitive Cartesian functions:                                5
       Number of Cartesian basis functions:                                    5
       Number of spherical basis functions:                                    5
       Norm type:                                                              2

       Normalised Cartesian orbitals:

                        Set   Shell   Orbital            Exponent    Coefficient

                          1       1    2s               10.068468      -0.133023
                                                         2.680223      -0.177618
                                                         0.791502      -0.258419
                                                         0.239116      -0.107525
                                                         0.082193      -0.014019

                          1       2    3s               10.068468       0.344673
                                                         2.680223       1.819821
                                                         0.791502      -0.999069
                                                         0.239116       0.017430
                                                         0.082193       0.082660

                          1       3    3px              10.068468       0.155326
                                                         2.680223       0.367157
                                                         0.791502       0.311480
                                                         0.239116       0.080105
                                                         0.082193       0.033440
                          1       3    3py              10.068468       0.155326
                                                         2.680223       0.367157
                                                         0.791502       0.311480
                                                         0.239116       0.080105
                                                         0.082193       0.033440
                          1       3    3pz              10.068468       0.155326
                                                         2.680223       0.367157
                                                         0.791502       0.311480
                                                         0.239116       0.080105
                                                         0.082193       0.033440

       Atomic covalent radius [Angstrom]:                                  0.320

       Atomic van der Waals radius [Angstrom]:                             1.090

     GTH Potential information for                                    GTH-PBE-q1

       Description:                       Goedecker-Teter-Hutter pseudopotential
                                           Goedecker et al., PRB 54, 1703 (1996)
                                          Hartwigsen et al., PRB 58, 3641 (1998)
                                                      Krack, TCA 114, 145 (2005)

       Gaussian exponent of the core charge distribution:              12.500000
       Electronic configuration (s p d ...):                                   1

       Parameters of the local part of the GTH pseudopotential:

                          rloc        C1          C2          C3          C4
                        0.200000   -4.178900    0.724463

  3. Atomic kind: Pt                                    Number of atoms:     216

     Orbital Basis Set                      DZVP-A5-Q10-323-MOL-T1-DERIVED_SET-1

       Number of orbital shell sets:                                           1
       Number of orbital shells:                                               6
       Number of primitive Cartesian functions:                                5
       Number of Cartesian basis functions:                                   23
       Number of spherical basis functions:                                   20
       Norm type:                                                              2

       Normalised Cartesian orbitals:

                        Set   Shell   Orbital            Exponent    Coefficient

                          1       1    2s                2.521825       0.177473
                                                         1.453920      -0.063399
                                                         0.614053      -0.407089
                                                         0.232656       0.262254
                                                         0.074788       0.047371

                          1       2    3s                2.521825      -0.049056
                                                         1.453920       0.044904
                                                         0.614053      -0.009756
                                                         0.232656      -0.144709
                                                         0.074788       0.144085

                          1       3    3px               2.521825      -0.317572
                                                         1.453920       0.534826
                                                         0.614053      -0.489458
                                                         0.232656       0.245631
                                                         0.074788       0.018221
                          1       3    3py               2.521825      -0.317572
                                                         1.453920       0.534826
                                                         0.614053      -0.489458
                                                         0.232656       0.245631
                                                         0.074788       0.018221
                          1       3    3pz               2.521825      -0.317572
                                                         1.453920       0.534826
                                                         0.614053      -0.489458
                                                         0.232656       0.245631
                                                         0.074788       0.018221

                          1       4    4dx2              2.521825       3.008522
                                                         1.453920      -1.224251
                                                         0.614053       0.225691
                                                         0.232656       0.125144
                                                         0.074788      -0.015348
                          1       4    4dxy              2.521825       5.210912
                                                         1.453920      -2.120465
                                                         0.614053       0.390909
                                                         0.232656       0.216756
                                                         0.074788      -0.026584
                          1       4    4dxz              2.521825       5.210912
                                                         1.453920      -2.120465
                                                         0.614053       0.390909
                                                         0.232656       0.216756
                                                         0.074788      -0.026584
                          1       4    4dy2              2.521825       3.008522
                                                         1.453920      -1.224251
                                                         0.614053       0.225691
                                                         0.232656       0.125144
                                                         0.074788      -0.015348
                          1       4    4dyz              2.521825       5.210912
                                                         1.453920      -2.120465
                                                         0.614053       0.390909
                                                         0.232656       0.216756
                                                         0.074788      -0.026584
                          1       4    4dz2              2.521825       3.008522
                                                         1.453920      -1.224251
                                                         0.614053       0.225691
                                                         0.232656       0.125144
                                                         0.074788      -0.015348

                          1       5    5dx2              2.521825       0.698026
                                                         1.453920      -1.511486
                                                         0.614053      -0.335394
                                                         0.232656      -0.025564
                                                         0.074788      -0.002699
                          1       5    5dxy              2.521825       1.209017
                                                         1.453920      -2.617970
                                                         0.614053      -0.580920
                                                         0.232656      -0.044277
                                                         0.074788      -0.004674
                          1       5    5dxz              2.521825       1.209017
                                                         1.453920      -2.617970
                                                         0.614053      -0.580920
                                                         0.232656      -0.044277
                                                         0.074788      -0.004674
                          1       5    5dy2              2.521825       0.698026
                                                         1.453920      -1.511486
                                                         0.614053      -0.335394
                                                         0.232656      -0.025564
                                                         0.074788      -0.002699
                          1       5    5dyz              2.521825       1.209017
                                                         1.453920      -2.617970
                                                         0.614053      -0.580920
                                                         0.232656      -0.044277
                                                         0.074788      -0.004674
                          1       5    5dz2              2.521825       0.698026
                                                         1.453920      -1.511486
                                                         0.614053      -0.335394
                                                         0.232656      -0.025564
                                                         0.074788      -0.002699

                          1       6    6dx2              2.521825       0.831079
                                                         1.453920      -0.709226
                                                         0.614053      -0.137351
                                                         0.232656       0.068642
                                                         0.074788       0.011745
                          1       6    6dxy              2.521825       1.439472
                                                         1.453920      -1.228415
                                                         0.614053      -0.237899
                                                         0.232656       0.118891
                                                         0.074788       0.020343
                          1       6    6dxz              2.521825       1.439472
                                                         1.453920      -1.228415
                                                         0.614053      -0.237899
                                                         0.232656       0.118891
                                                         0.074788       0.020343
                          1       6    6dy2              2.521825       0.831079
                                                         1.453920      -0.709226
                                                         0.614053      -0.137351
                                                         0.232656       0.068642
                                                         0.074788       0.011745
                          1       6    6dyz              2.521825       1.439472
                                                         1.453920      -1.228415
                                                         0.614053      -0.237899
                                                         0.232656       0.118891
                                                         0.074788       0.020343
                          1       6    6dz2              2.521825       0.831079
                                                         1.453920      -0.709226
                                                         0.614053      -0.137351
                                                         0.232656       0.068642
                                                         0.074788       0.011745

       Atomic covalent radius [Angstrom]:                                  1.300

       Atomic van der Waals radius [Angstrom]:                             1.750

     GTH Potential information for                                   GTH-PBE-q10

       Description:                       Goedecker-Teter-Hutter pseudopotential
                                           Goedecker et al., PRB 54, 1703 (1996)
                                          Hartwigsen et al., PRB 58, 3641 (1998)
                                                      Krack, TCA 114, 145 (2005)

       Gaussian exponent of the core charge distribution:               1.317676
       Electronic configuration (s p d ...):                           1   0   9

       Parameters of the local part of the GTH pseudopotential:

                          rloc        C1          C2          C3          C4
                        0.616000   11.313635

       Parameters of the non-local part of the GTH pseudopotential:

                   l      r(l)      h(i,j,l)

                   0    0.550904    4.733491   -1.784594
                                   -1.784594    2.303901
                   1    0.674138    2.534798   -1.778066
                                   -1.778066    2.103836
                   2    0.457392   -7.264011    2.558665
                                    2.558665   -2.901253


 MOLECULE KIND INFORMATION


 All atoms are their own molecule, skipping detailed information


 TOTAL NUMBERS AND MAXIMUM NUMBERS

  Total number of            - Atomic kinds:                                   3
                             - Atoms:                                        906
                             - Shell sets:                                   906
                             - Shells:                                      3826
                             - Primitive Cartesian functions:               4530
                             - Cartesian basis functions:                  10488
                             - Spherical basis functions:                   9610

  Maximum angular momentum of- Orbital basis functions:                        2
                             - Local part of the GTH pseudopotential:          2
                             - Non-local part of the GTH pseudopotential:      4


 MODULE QUICKSTEP:  ATOMIC COORDINATES IN angstrom

 Atom  Kind  Element       X           Y           Z          Z(eff)       Mass
    1   1 O    8       1.650000   -8.110001   13.050001       6.0000     15.9994
    2   2 H    1       2.370000   -7.750000   12.450000       1.0000      1.0079
    3   2 H    1       0.870000   -8.020000   12.580000       1.0000      1.0079
    4   1 O    8       3.790000    8.060000    8.960000       6.0000     15.9994
    5   2 H    1       3.230000    7.370000    9.330000       1.0000      1.0079
    6   2 H    1       3.590000    7.950000    7.990000       1.0000      1.0079
    7   1 O    8     -11.690001  -10.980000   19.270000       6.0000     15.9994
    8   2 H    1     -12.090001  -10.140000   18.930000       1.0000      1.0079
    9   2 H    1     -11.140001  -10.660001   20.050001       1.0000      1.0079
   10   1 O    8       2.830000   -1.350000    8.800000       6.0000     15.9994
   11   2 H    1       2.310000   -1.400000    7.960001       1.0000      1.0079
   12   2 H    1       2.970000   -2.320000    8.970000       1.0000      1.0079
   13   1 O    8       3.140000   -6.380000   11.430000       6.0000     15.9994
   14   2 H    1       2.640000   -5.480001   11.490001       1.0000      1.0079
   15   2 H    1       2.970000   -6.680000   10.510000       1.0000      1.0079
   16   1 O    8       6.800000   28.820002   11.220001       6.0000     15.9994
   17   2 H    1       6.260000   28.940001   10.450001       1.0000      1.0079
   18   2 H    1       6.720000   27.889999   11.470001       1.0000      1.0079
   19   1 O    8      -3.680000   34.880001   14.830000       6.0000     15.9994
   20   2 H    1      -3.810000   34.340004   14.080001       1.0000      1.0079
   21   2 H    1      -3.030000   34.380001   15.390000       1.0000      1.0079
   22   1 O    8      -0.140000   28.530003    9.230001       6.0000     15.9994
   23   2 H    1      -0.080000   28.910000    8.350000       1.0000      1.0079
   24   2 H    1       7.310000   14.120001    9.390000       1.0000      1.0079
   25   1 O    8     -15.550001  -21.290001   30.180000       6.0000     15.9994
   26   2 H    1     -14.670001  -21.160002   29.670002       1.0000      1.0079
   27   2 H    1     -15.580001  -22.260000   30.090000       1.0000      1.0079
   28   1 O    8       6.380000    4.410000   24.470001       6.0000     15.9994
   29   2 H    1       5.900001    5.110001   24.980001       1.0000      1.0079
   30   2 H    1       7.320001    4.500000   24.840002       1.0000      1.0079
   31   1 O    8       4.690000    1.770000   21.480000       6.0000     15.9994
   32   2 H    1       5.590000    1.800000   21.880001       1.0000      1.0079
   33   2 H    1       4.760000    1.500000   20.490000       1.0000      1.0079
   34   1 O    8      -5.750000  -14.820002   19.780001       6.0000     15.9994
   35   2 H    1      -5.320000  -15.180001   18.950001       1.0000      1.0079
   36   2 H    1      -5.680000  -15.340000   20.590000       1.0000      1.0079
   37   1 O    8     -10.010000  -16.170002   29.650002       6.0000     15.9994
   38   2 H    1      -9.570000  -16.370001   30.550001       1.0000      1.0079
   39   2 H    1     -11.010000  -16.280001   29.730000       1.0000      1.0079
   40   1 O    8      16.950001   17.490002   10.440001       6.0000     15.9994
   41   2 H    1      17.000000   17.290001   11.430000       1.0000      1.0079
   42   2 H    1      17.280001   18.390001   10.200001       1.0000      1.0079
   43   1 O    8       5.820000   -5.300000   30.670002       6.0000     15.9994
   44   2 H    1       6.480000   -5.400000   29.910002       1.0000      1.0079
   45   2 H    1       4.920000   -5.290000   30.260002       1.0000      1.0079
   46   1 O    8      -4.250000    8.600000   26.790001       6.0000     15.9994
   47   2 H    1      -3.410000    9.140000   26.800001       1.0000      1.0079
   48   2 H    1      -4.730000    8.880001   27.650002       1.0000      1.0079
   49   1 O    8     -17.690001   10.180000   17.390001       6.0000     15.9994
   50   2 H    1     -17.820000   10.559999   16.480001       1.0000      1.0079
   51   2 H    1     -17.820000   10.900001   18.020000       1.0000      1.0079
   52   1 O    8      -2.340000   15.450001   13.490001       6.0000     15.9994
   53   2 H    1      -3.050000   16.080000   13.310001       1.0000      1.0079
   54   2 H    1      -2.220000   15.010000   12.650002       1.0000      1.0079
   55   1 O    8       2.730000  -15.150002   32.520000       6.0000     15.9994
   56   2 H    1       3.460000  -14.550000   32.420002       1.0000      1.0079
   57   2 H    1       2.560000  -15.510001   33.400002       1.0000      1.0079
   58   1 O    8      20.670002   -0.930000   26.590002       6.0000     15.9994
   59   2 H    1      20.200001   -0.010000   26.580002       1.0000      1.0079
   60   2 H    1      20.120001   -1.540000   26.090002       1.0000      1.0079
   61   1 O    8     -20.980000   29.710003   26.520002       6.0000     15.9994
   62   2 H    1     -20.740002   30.660002   26.520002       1.0000      1.0079
   63   2 H    1      -3.220000   29.230001   26.800001       1.0000      1.0079
   64   1 O    8      24.300001  -11.420001    8.970000       6.0000     15.9994
   65   2 H    1      23.650000  -11.600000    8.250000       1.0000      1.0079
   66   2 H    1      41.240002  -10.420000    9.040001       1.0000      1.0079
   67   1 O    8       5.280000   -0.380000    8.670000       6.0000     15.9994
   68   2 H    1      -4.030000   13.910000    8.820001       1.0000      1.0079
   69   2 H    1       5.330000    0.650000    8.570001       1.0000      1.0079
   70   1 O    8     -12.520000   20.570002   26.130001       6.0000     15.9994
   71   2 H    1     -12.370001   20.640001   25.150002       1.0000      1.0079
   72   2 H    1     -12.580000   21.540001   26.420002       1.0000      1.0079
   73   1 O    8      -4.460000    2.570000   23.450001       6.0000     15.9994
   74   2 H    1      -3.510000    2.690000   23.670002       1.0000      1.0079
   75   2 H    1      -4.660000    1.820000   24.040001       1.0000      1.0079
   76   1 O    8      -8.010000    9.930000   32.500004       6.0000     15.9994
   77   2 H    1      -8.930000    9.590000   32.540001       1.0000      1.0079
   78   2 H    1      -7.660000    9.520000   33.310001       1.0000      1.0079
   79   1 O    8      -2.400000  -38.120003   22.080002       6.0000     15.9994
   80   2 H    1      -2.860000  -37.370003   22.450001       1.0000      1.0079
   81   2 H    1      -2.240000  -38.760002   22.870003       1.0000      1.0079
   82   1 O    8       1.960000   -4.070000   11.480000       6.0000     15.9994
   83   2 H    1       1.070000   -4.130000   11.850000       1.0000      1.0079
   84   2 H    1       2.340000   -3.570000   12.300000       1.0000      1.0079
   85   1 O    8      -6.940000   17.170002    8.240001       6.0000     15.9994
   86   2 H    1      -7.830000   17.580002    8.380001       1.0000      1.0079
   87   2 H    1      -6.720000   16.590000    9.020000       1.0000      1.0079
   88   1 O    8      13.580000   -4.340000    9.770000       6.0000     15.9994
   89   2 H    1      -3.600000   -5.270000    9.500000       1.0000      1.0079
   90   2 H    1      14.500000   -4.100000    9.450001       1.0000      1.0079
   91   1 O    8      -3.060000  -14.980001   15.800000       6.0000     15.9994
   92   2 H    1      -2.370000  -14.770001   16.460001       1.0000      1.0079
   93   2 H    1      -2.700000  -14.500000   15.030001       1.0000      1.0079
   94   1 O    8      15.960001   19.050001   17.280001       6.0000     15.9994
   95   2 H    1      15.380001   19.730000   17.730001       1.0000      1.0079
   96   2 H    1      16.900002   19.500000   17.270000       1.0000      1.0079
   97   1 O    8     -23.430002  -15.430001   14.890001       6.0000     15.9994
   98   2 H    1     -23.190001  -15.700001   15.790001       1.0000      1.0079
   99   2 H    1     -22.959999  -14.540001   14.750000       1.0000      1.0079
  100   1 O    8      -1.520000  -13.220000   22.820000       6.0000     15.9994
  101   2 H    1      -0.770000  -12.700001   22.310001       1.0000      1.0079
  102   2 H    1      -1.120000  -14.060000   22.970001       1.0000      1.0079
  103   1 O    8      23.660002   10.850000   23.440001       6.0000     15.9994
  104   2 H    1      24.360001   10.130000   23.370001       1.0000      1.0079
  105   2 H    1       7.260000   11.630001   23.070002       1.0000      1.0079
  106   1 O    8      -3.270000    6.200000   11.660000       6.0000     15.9994
  107   2 H    1      -3.630000    7.090001   11.340000       1.0000      1.0079
  108   2 H    1      -2.320000    6.270000   11.780001       1.0000      1.0079
  109   1 O    8      24.040001   17.000000   17.980001       6.0000     15.9994
  110   2 H    1      23.200001   17.400002   18.480000       1.0000      1.0079
  111   2 H    1      24.100000   17.610001   17.290001       1.0000      1.0079
  112   1 O    8     -10.460000   11.000000   26.160002       6.0000     15.9994
  113   2 H    1     -10.390000   11.940001   26.480003       1.0000      1.0079
  114   2 H    1     -10.240001   11.050000   25.190001       1.0000      1.0079
  115   1 O    8       7.840000   20.520000   11.640000       6.0000     15.9994
  116   2 H    1       8.280001   21.370001   11.920000       1.0000      1.0079
  117   2 H    1       8.060000   20.559999   10.650001       1.0000      1.0079
  118   1 O    8     -24.980001   19.530001   29.590000       6.0000     15.9994
  119   2 H    1     -24.440001   18.800001   29.930000       1.0000      1.0079
  120   2 H    1     -25.830002   19.440001   30.080002       1.0000      1.0079
  121   1 O    8      17.100000   12.190001   28.730001       6.0000     15.9994
  122   2 H    1      17.540001   12.720001   29.410002       1.0000      1.0079
  123   2 H    1      17.620001   12.320002   27.880001       1.0000      1.0079
  124   1 O    8     -13.950001   18.360001   29.840002       6.0000     15.9994
  125   2 H    1     -23.040001   32.240002   29.730000       1.0000      1.0079
  126   2 H    1     -13.410001   18.210001   29.010000       1.0000      1.0079
  127   1 O    8      11.430000   -9.610001   17.100000       6.0000     15.9994
  128   2 H    1      11.210001  -10.600000   17.080000       1.0000      1.0079
  129   2 H    1       2.540000    5.250000   16.310001       1.0000      1.0079
  130   1 O    8      -2.400000    6.250000   29.320002       6.0000     15.9994
  131   2 H    1      -3.060000    6.170001   30.080002       1.0000      1.0079
  132   2 H    1      -3.080000    6.190000   28.610001       1.0000      1.0079
  133   1 O    8       0.410000   23.600002    8.270000       6.0000     15.9994
  134   2 H    1      -0.250000   22.900002    8.620001       1.0000      1.0079
  135   2 H    1       0.000000   24.370001    8.600000       1.0000      1.0079
  136   1 O    8     -26.880001    5.620000   30.060001       6.0000     15.9994
  137   2 H    1     -27.590000    5.100000   30.460003       1.0000      1.0079
  138   2 H    1     -27.050001    6.620001   30.040001       1.0000      1.0079
  139   1 O    8      -1.570000    8.940001   26.510000       6.0000     15.9994
  140   2 H    1      -1.330000    8.140000   25.920000       1.0000      1.0079
  141   2 H    1      -1.140000    8.760000   27.390001       1.0000      1.0079
  142   1 O    8      -3.200000    5.810000   23.630001       6.0000     15.9994
  143   2 H    1      -3.590000    6.570000   23.100002       1.0000      1.0079
  144   2 H    1      -2.810000    5.280000   22.860001       1.0000      1.0079
  145   1 O    8     -18.180000   33.350002   15.850000       6.0000     15.9994
  146   2 H    1      -0.990000   32.920002   15.010000       1.0000      1.0079
  147   2 H    1     -17.680000   34.160000   15.930000       1.0000      1.0079
  148   1 O    8     -32.090000   20.820000   26.820002       6.0000     15.9994
  149   2 H    1     -32.000000   20.610001   27.780001       1.0000      1.0079
  150   2 H    1     -31.240002   20.840000   26.340000       1.0000      1.0079
  151   1 O    8     -12.870001   20.350000   18.620001       6.0000     15.9994
  152   2 H    1     -12.150001   20.850000   18.160002       1.0000      1.0079
  153   2 H    1     -13.670001   20.180000   18.030001       1.0000      1.0079
  154   1 O    8      -6.690001  -13.450001   24.160002       6.0000     15.9994
  155   2 H    1      -7.270000  -12.840000   23.640001       1.0000      1.0079
  156   2 H    1      -6.170001  -14.070001   23.560001       1.0000      1.0079
  157   1 O    8       1.910000   -6.970000   15.600000       6.0000     15.9994
  158   2 H    1       1.140000   -6.340000   15.600000       1.0000      1.0079
  159   2 H    1       1.780000   -7.450001   14.710001       1.0000      1.0079
  160   1 O    8      -0.810000   -3.390000    8.880001       6.0000     15.9994
  161   2 H    1      -0.440000   -2.550000    9.210001       1.0000      1.0079
  162   2 H    1      -0.910000   -3.120000    7.900000       1.0000      1.0079
  163   1 O    8      39.590000   -7.100000   32.620003       6.0000     15.9994
  164   2 H    1      39.950001   -6.640000   33.440002       1.0000      1.0079
  165   2 H    1      39.780003   -6.500000   31.860001       1.0000      1.0079
  166   1 O    8      -7.600000   -2.600000   14.830000       6.0000     15.9994
  167   2 H    1      -7.440000   -1.710000   14.460001       1.0000      1.0079
  168   2 H    1      -8.590000   -2.630000   14.750000       1.0000      1.0079
  169   1 O    8     -35.950005    0.010000   16.420000       6.0000     15.9994
  170   2 H    1     -18.360001   -0.420000   15.910001       1.0000      1.0079
  171   2 H    1     -18.830002    0.830000   16.940001       1.0000      1.0079
  172   1 O    8       1.930000  -13.400001    9.040001       6.0000     15.9994
  173   2 H    1       1.280000  -12.820001    9.480001       1.0000      1.0079
  174   2 H    1       1.460000  -13.900002    8.360001       1.0000      1.0079
  175   1 O    8       5.990000    3.860000   14.930000       6.0000     15.9994
  176   2 H    1       5.570001    3.010000   15.060000       1.0000      1.0079
  177   2 H    1       6.510000    4.080000   15.740002       1.0000      1.0079
  178   1 O    8      -8.230000   15.000001   26.390001       6.0000     15.9994
  179   2 H    1      -8.650001   15.860001   26.680002       1.0000      1.0079
  180   2 H    1      -7.960001   15.140000   25.459999       1.0000      1.0079
  181   1 O    8      15.630001    2.710000   32.670002       6.0000     15.9994
  182   2 H    1      14.820002    2.210000   32.580002       1.0000      1.0079
  183   2 H    1      15.900001    2.590000   33.680004       1.0000      1.0079
  184   1 O    8       7.960001    9.830000   28.240002       6.0000     15.9994
  185   2 H    1       8.800000   10.330000   28.440001       1.0000      1.0079
  186   2 H    1       7.500000   10.570001   27.780001       1.0000      1.0079
  187   1 O    8      -5.640000   28.040001   13.760000       6.0000     15.9994
  188   2 H    1      -5.910000   28.540001   12.950001       1.0000      1.0079
  189   2 H    1      -5.240001   28.740002   14.380001       1.0000      1.0079
  190   1 O    8      12.970000   18.790001   30.080002       6.0000     15.9994
  191   2 H    1      13.430000   18.010002   29.640003       1.0000      1.0079
  192   2 H    1      12.720001   19.360001   29.360001       1.0000      1.0079
  193   1 O    8       7.350000    6.900001    9.150001       6.0000     15.9994
  194   2 H    1       8.250000    6.500000    8.900001       1.0000      1.0079
  195   2 H    1       7.250000    6.810000   10.150002       1.0000      1.0079
  196   1 O    8     -35.590004   -1.100000   26.910002       6.0000     15.9994
  197   2 H    1     -34.750000   -0.670000   26.620003       1.0000      1.0079
  198   2 H    1     -35.480000   -1.290000   27.889999       1.0000      1.0079
  199   1 O    8     -14.430000   14.940001   21.170002       6.0000     15.9994
  200   2 H    1     -14.990001   14.170000   21.150000       1.0000      1.0079
  201   2 H    1     -13.790001   15.130001   20.420000       1.0000      1.0079
  202   1 O    8       8.110001   16.030001   11.420001       6.0000     15.9994
  203   2 H    1       7.530000   16.480001   10.820000       1.0000      1.0079
  204   2 H    1       7.650001   15.170001   11.670000       1.0000      1.0079
  205   1 O    8      22.810001   -7.100000    9.120001       6.0000     15.9994
  206   2 H    1      14.620000    8.490001    9.070001       1.0000      1.0079
  207   2 H    1      22.450001   -7.320001    8.280001       1.0000      1.0079
  208   1 O    8      -6.000000  -22.440002   20.740002       6.0000     15.9994
  209   2 H    1      -5.500000  -22.590000   19.910000       1.0000      1.0079
  210   2 H    1      -5.420001  -21.980001   21.500000       1.0000      1.0079
  211   1 O    8      -0.500000  -13.410001   27.200001       6.0000     15.9994
  212   2 H    1      -1.010000  -13.020000   26.440001       1.0000      1.0079
  213   2 H    1      -0.830000  -14.360001   27.150002       1.0000      1.0079
  214   1 O    8       3.750000    4.910000   11.530000       6.0000     15.9994
  215   2 H    1       4.330000    5.670000   11.810001       1.0000      1.0079
  216   2 H    1       3.110000    5.300000   10.930000       1.0000      1.0079
  217   1 O    8     -23.040001    4.680000   22.440002       6.0000     15.9994
  218   2 H    1     -22.830000    5.360000   21.720001       1.0000      1.0079
  219   2 H    1     -22.190001    4.230000   22.670002       1.0000      1.0079
  220   1 O    8      29.380001    8.010000   22.460001       6.0000     15.9994
  221   2 H    1      29.020002    8.520000   23.200001       1.0000      1.0079
  222   2 H    1      30.210001    8.500000   22.190001       1.0000      1.0079
  223   1 O    8      -8.150001   12.760000   23.380001       6.0000     15.9994
  224   2 H    1       9.240000   12.410001   24.100000       1.0000      1.0079
  225   2 H    1      -7.420001   13.030001   22.750000       1.0000      1.0079
  226   1 O    8       3.020000   33.930000    7.920001       6.0000     15.9994
  227   2 H    1       3.990000   33.960003    8.170000       1.0000      1.0079
  228   2 H    1      19.490002   33.010002    8.170000       1.0000      1.0079
  229   1 O    8      -8.530001    7.400000   21.870001       6.0000     15.9994
  230   2 H    1      -7.770000    7.050000   21.360001       1.0000      1.0079
  231   2 H    1      -9.250001    6.800000   21.940001       1.0000      1.0079
  232   1 O    8       4.860000    5.750000   33.370003       6.0000     15.9994
  233   2 H    1       4.320000    5.030000   33.070000       1.0000      1.0079
  234   2 H    1       4.450000    6.590000   33.060001       1.0000      1.0079
  235   1 O    8      -6.860001   31.270000   26.080000       6.0000     15.9994
  236   2 H    1      -7.220001   32.180000   25.870001       1.0000      1.0079
  237   2 H    1      -7.520000   30.870001   26.650002       1.0000      1.0079
  238   1 O    8      -0.490000   -2.130000   32.220001       6.0000     15.9994
  239   2 H    1      -8.290001   11.620001   32.300003       1.0000      1.0079
  240   2 H    1       0.090000   -1.350000   32.360001       1.0000      1.0079
  241   1 O    8       8.950001   -4.640000   22.500000       6.0000     15.9994
  242   2 H    1       9.500000   -3.830000   22.480001       1.0000      1.0079
  243   2 H    1       9.460000   -5.160000   21.840000       1.0000      1.0079
  244   1 O    8       3.810000   -4.080000    8.700001       6.0000     15.9994
  245   2 H    1       4.690000   -4.440001    8.480000       1.0000      1.0079
  246   2 H    1       3.210000   -4.770000    8.970000       1.0000      1.0079
  247   1 O    8      15.930000    5.390000   32.610001       6.0000     15.9994
  248   2 H    1      15.280001    6.110000   32.450001       1.0000      1.0079
  249   2 H    1      15.430001    4.500000   32.570004       1.0000      1.0079
  250   1 O    8      19.930002   -0.440000   22.580002       6.0000     15.9994
  251   2 H    1      20.459999    0.330000   22.170000       1.0000      1.0079
  252   2 H    1      20.580002   -1.250000   22.760000       1.0000      1.0079
  253   1 O    8      -4.130000    2.250000    8.340000       6.0000     15.9994
  254   2 H    1      -5.010000    1.920000    8.710001       1.0000      1.0079
  255   2 H    1      -4.080000    3.180000    8.680000       1.0000      1.0079
  256   1 O    8       8.810000  -12.780001   20.060001       6.0000     15.9994
  257   2 H    1       8.180000  -12.830001   19.310001       1.0000      1.0079
  258   2 H    1       9.590000  -13.240002   19.830000       1.0000      1.0079
  259   1 O    8     -15.350000   24.250002   19.390001       6.0000     15.9994
  260   2 H    1     -14.650001   24.550001   18.790001       1.0000      1.0079
  261   2 H    1     -15.090000   23.350000   19.610001       1.0000      1.0079
  262   1 O    8       5.700001    4.810000    8.220000       6.0000     15.9994
  263   2 H    1       5.960000    3.930000    8.650001       1.0000      1.0079
  264   2 H    1       6.230001    5.500000    8.660001       1.0000      1.0079
  265   1 O    8       2.680000    4.310000   13.890000       6.0000     15.9994
  266   2 H    1       3.140000    4.490000   12.990000       1.0000      1.0079
  267   2 H    1      10.240001   18.560001   13.670001       1.0000      1.0079
  268   1 O    8      -6.940000   -8.970000   33.380001       6.0000     15.9994
  269   2 H    1      -7.870001   -8.990001   32.950001       1.0000      1.0079
  270   2 H    1      -6.420000   -9.700001   32.950001       1.0000      1.0079
  271   1 O    8       5.960000    2.240000    9.110001       6.0000     15.9994
  272   2 H    1       5.240001    1.990000    9.800000       1.0000      1.0079
  273   2 H    1       6.750000    2.160000    9.670001       1.0000      1.0079
  274   1 O    8       0.250000   16.620001   13.080001       6.0000     15.9994
  275   2 H    1       0.720000   17.150000   13.780001       1.0000      1.0079
  276   2 H    1      -0.690000   16.460001   13.270000       1.0000      1.0079
  277   1 O    8       2.430000    7.330000   14.490002       6.0000     15.9994
  278   2 H    1     -14.070001    8.190001   14.740001       1.0000      1.0079
  279   2 H    1       3.220000    6.780000   14.260001       1.0000      1.0079
  280   1 O    8      33.190002   -8.150001   32.660004       6.0000     15.9994
  281   2 H    1      32.920002   -8.380001   31.740002       1.0000      1.0079
  282   2 H    1      32.590000   -8.580000   33.340000       1.0000      1.0079
  283   1 O    8      15.940001   -3.850000   17.910002       6.0000     15.9994
  284   2 H    1       7.850000   11.500001   18.490002       1.0000      1.0079
  285   2 H    1      15.720000   -4.560000   18.590000       1.0000      1.0079
  286   1 O    8     -35.520004   31.550003   23.950003       6.0000     15.9994
  287   2 H    1     -17.889999   31.940002   23.420000       1.0000      1.0079
  288   2 H    1     -35.290001   31.510002   24.930000       1.0000      1.0079
  289   1 O    8      -8.670000   -0.790000   23.410000       6.0000     15.9994
  290   2 H    1      -9.080001   -1.470000   23.910000       1.0000      1.0079
  291   2 H    1      -7.800000   -0.570000   23.830002       1.0000      1.0079
  292   1 O    8      12.360001    0.740000   15.110001       6.0000     15.9994
  293   2 H    1      13.140000    0.280000   15.510001       1.0000      1.0079
  294   2 H    1      11.830001    1.010000   15.910001       1.0000      1.0079
  295   1 O    8      -1.470000   17.580002   32.630001       6.0000     15.9994
  296   2 H    1      -1.560000   17.730001   33.570000       1.0000      1.0079
  297   2 H    1      -0.520000   17.790001   32.510002       1.0000      1.0079
  298   1 O    8      -4.880000   23.440001   24.810001       6.0000     15.9994
  299   2 H    1      -4.890000   24.150002   25.510002       1.0000      1.0079
  300   2 H    1      -4.340000   22.700003   25.170002       1.0000      1.0079
  301   1 O    8      -8.450001   18.270000   13.390001       6.0000     15.9994
  302   2 H    1      -8.750001   17.560001   12.820001       1.0000      1.0079
  303   2 H    1      -8.450001   19.080002   12.820001       1.0000      1.0079
  304   1 O    8       5.500000   10.840001   21.150000       6.0000     15.9994
  305   2 H    1       5.700001   11.790000   20.870001       1.0000      1.0079
  306   2 H    1       6.040000   10.640000   22.000000       1.0000      1.0079
  307   1 O    8     -17.180000    5.950000    8.780001       6.0000     15.9994
  308   2 H    1     -16.930000    5.860000    7.770000       1.0000      1.0079
  309   2 H    1     -17.990002    6.540000    8.820001       1.0000      1.0079
  310   1 O    8     -16.110001   26.700001   28.440001       6.0000     15.9994
  311   2 H    1     -15.240001   27.140003   28.580000       1.0000      1.0079
  312   2 H    1     -16.780001   27.210003   28.820002       1.0000      1.0079
  313   1 O    8       5.160000    1.910000   28.500002       6.0000     15.9994
  314   2 H    1       4.440001    2.100000   27.880001       1.0000      1.0079
  315   2 H    1       5.870000    1.510000   28.000002       1.0000      1.0079
  316   1 O    8      -2.440000  -12.650002   25.220001       6.0000     15.9994
  317   2 H    1      -2.240000  -12.940001   24.230001       1.0000      1.0079
  318   2 H    1      -2.430000  -11.660000   24.910002       1.0000      1.0079
  319   1 O    8     -17.510000   -1.670000   14.570000       6.0000     15.9994
  320   2 H    1     -17.870001   -1.110000   13.850001       1.0000      1.0079
  321   2 H    1     -16.550001   -1.440000   14.670001       1.0000      1.0079
  322   1 O    8      12.330000    9.840000   15.420000       6.0000     15.9994
  323   2 H    1      11.750001    9.040001   15.600000       1.0000      1.0079
  324   2 H    1      13.120001    9.390000   15.030001       1.0000      1.0079
  325   1 O    8       7.990000   19.570002   26.920002       6.0000     15.9994
  326   2 H    1       8.810000   19.330002   26.440001       1.0000      1.0079
  327   2 H    1       8.250000   19.750002   27.860001       1.0000      1.0079
  328   1 O    8       4.530000   15.560001   11.540001       6.0000     15.9994
  329   2 H    1       4.810000   15.370001   10.640000       1.0000      1.0079
  330   2 H    1       3.550000   15.400001   11.510000       1.0000      1.0079
  331   1 O    8     -23.610001   37.620003   30.570002       6.0000     15.9994
  332   2 H    1     -23.970001   36.920002   30.030003       1.0000      1.0079
  333   2 H    1     -24.290001   38.160004   31.110001       1.0000      1.0079
  334   1 O    8     -18.700001    9.150001   21.680002       6.0000     15.9994
  335   2 H    1     -18.180000    8.500000   21.030003       1.0000      1.0079
  336   2 H    1     -17.970001    9.670001   22.120001       1.0000      1.0079
  337   1 O    8       3.420000   25.230000   32.250000       6.0000     15.9994
  338   2 H    1      12.830001   10.540000   32.260002       1.0000      1.0079
  339   2 H    1     -13.780001   24.760000   33.010002       1.0000      1.0079
  340   1 O    8      14.060000   29.050003    9.280001       6.0000     15.9994
  341   2 H    1      13.510000   28.220001    9.020000       1.0000      1.0079
  342   2 H    1      13.550000   29.710003    8.720000       1.0000      1.0079
  343   1 O    8       5.390000    9.780001   12.310000       6.0000     15.9994
  344   2 H    1       5.150001   10.140000   11.410000       1.0000      1.0079
  345   2 H    1       4.830000   10.290001   13.000001       1.0000      1.0079
  346   1 O    8       3.110000   -7.230001   32.800003       6.0000     15.9994
  347   2 H    1       4.130000   -7.250000   32.760002       1.0000      1.0079
  348   2 H    1       2.820000   -6.780000   32.010002       1.0000      1.0079
  349   1 O    8      12.590000   -1.020000   23.000002       6.0000     15.9994
  350   2 H    1      13.540001   -0.780000   22.990000       1.0000      1.0079
  351   2 H    1      12.120000   -0.370000   22.360001       1.0000      1.0079
  352   1 O    8       4.020000   10.720000   27.280003       6.0000     15.9994
  353   2 H    1       4.850000   10.880001   26.660002       1.0000      1.0079
  354   2 H    1       3.340000   11.280001   26.870001       1.0000      1.0079
  355   1 O    8       7.460001   -2.210000   19.110001       6.0000     15.9994
  356   2 H    1       8.300000   -2.320000   19.610001       1.0000      1.0079
  357   2 H    1       6.740000   -2.600000   19.620001       1.0000      1.0079
  358   1 O    8      -5.130000   16.320002   14.400001       6.0000     15.9994
  359   2 H    1      -5.480001   17.240002   14.210001       1.0000      1.0079
  360   2 H    1      -5.220000   16.370001   15.370001       1.0000      1.0079
  361   1 O    8     -13.290001    8.650001   28.840000       6.0000     15.9994
  362   2 H    1     -12.410001    8.360001   29.160002       1.0000      1.0079
  363   2 H    1     -13.100000    9.270000   28.140001       1.0000      1.0079
  364   1 O    8      -5.340000   13.380001   17.300001       6.0000     15.9994
  365   2 H    1      -4.520000   13.600000   16.810001       1.0000      1.0079
  366   2 H    1      -5.280000   12.500000   17.740000       1.0000      1.0079
  367   1 O    8       6.330000   14.180001   20.360001       6.0000     15.9994
  368   2 H    1       6.380000   14.590001   21.250000       1.0000      1.0079
  369   2 H    1       5.610001   14.610001   19.890001       1.0000      1.0079
  370   1 O    8     -18.780001    1.080000   29.460001       6.0000     15.9994
  371   2 H    1     -18.380001    0.220000   29.630001       1.0000      1.0079
  372   2 H    1     -19.700001    0.930000   29.740002       1.0000      1.0079
  373   1 O    8      -7.810000    1.980000   29.650002       6.0000     15.9994
  374   2 H    1      -8.110001    2.180000   30.520000       1.0000      1.0079
  375   2 H    1      -8.660001    2.090000   29.050003       1.0000      1.0079
  376   1 O    8     -10.320001   14.000001   12.300000       6.0000     15.9994
  377   2 H    1     -11.200000   14.530001   12.150001       1.0000      1.0079
  378   2 H    1     -10.490000   13.100000   11.910001       1.0000      1.0079
  379   1 O    8      -4.200000   -2.290000   29.570004       6.0000     15.9994
  380   2 H    1      -4.340000   -2.900000   28.810001       1.0000      1.0079
  381   2 H    1      -4.740000   -1.440000   29.400002       1.0000      1.0079
  382   1 O    8     -13.330001    1.690000   26.220001       6.0000     15.9994
  383   2 H    1     -14.030001    1.920000   25.580002       1.0000      1.0079
  384   2 H    1     -12.510000    1.610000   25.660002       1.0000      1.0079
  385   1 O    8      -3.010000   20.850000   13.410001       6.0000     15.9994
  386   2 H    1      -3.010000   21.530001   14.070001       1.0000      1.0079
  387   2 H    1      -2.710000   20.110001   13.960000       1.0000      1.0079
  388   1 O    8       1.310000   10.740000   12.400000       6.0000     15.9994
  389   2 H    1       1.020000   11.110001   13.220000       1.0000      1.0079
  390   2 H    1       1.390000   11.460000   11.800001       1.0000      1.0079
  391   1 O    8       1.500000   19.570002    9.260000       6.0000     15.9994
  392   2 H    1       2.460000   19.830000    9.400001       1.0000      1.0079
  393   2 H    1       1.540000   19.060001    8.440001       1.0000      1.0079
  394   1 O    8       9.570000   21.809999   23.560001       6.0000     15.9994
  395   2 H    1      17.260000    7.150001   24.180002       1.0000      1.0079
  396   2 H    1      10.090000   22.610001   23.690002       1.0000      1.0079
  397   1 O    8      -7.860000    4.370000   24.930000       6.0000     15.9994
  398   2 H    1      -7.410001    4.540000   24.060001       1.0000      1.0079
  399   2 H    1      -7.460001    5.040000   25.560001       1.0000      1.0079
  400   1 O    8       7.290000   25.610001   32.200005       6.0000     15.9994
  401   2 H    1       6.860001   24.900000   31.650002       1.0000      1.0079
  402   2 H    1       7.870001   24.930000   32.680000       1.0000      1.0079
  403   1 O    8      21.660002   37.550003   22.490002       6.0000     15.9994
  404   2 H    1      20.930002   37.680000   21.820002       1.0000      1.0079
  405   2 H    1      21.350000   38.120003   23.230001       1.0000      1.0079
  406   1 O    8      10.430001   -2.500000   26.460001       6.0000     15.9994
  407   2 H    1      10.620001   -1.660000   25.950001       1.0000      1.0079
  408   2 H    1       9.780001   -3.190000   26.040001       1.0000      1.0079
  409   1 O    8      17.160000    7.140000   16.190001       6.0000     15.9994
  410   2 H    1      17.550001    7.620000   16.950001       1.0000      1.0079
  411   2 H    1      17.920000    7.140000   15.620001       1.0000      1.0079
  412   1 O    8     -22.950001   -5.990000   20.760002       6.0000     15.9994
  413   2 H    1     -23.059999   -5.690000   19.760000       1.0000      1.0079
  414   2 H    1     -22.930002   -7.000000   20.550001       1.0000      1.0079
  415   1 O    8     -19.500000    9.410001   11.680001       6.0000     15.9994
  416   2 H    1     -20.480001    9.120001   11.650001       1.0000      1.0079
  417   2 H    1     -19.230001    9.070001   12.580000       1.0000      1.0079
  418   1 O    8      25.440002   31.570000   18.940001       6.0000     15.9994
  419   2 H    1      25.040001   32.430004   18.620001       1.0000      1.0079
  420   2 H    1      25.820000   31.720001   19.820002       1.0000      1.0079
  421   1 O    8      21.260002    2.070000   11.260000       6.0000     15.9994
  422   2 H    1      20.459999    1.540000   11.100000       1.0000      1.0079
  423   2 H    1      20.910000    2.920000   11.330000       1.0000      1.0079
  424   1 O    8       0.540000   13.270000   31.150002       6.0000     15.9994
  425   2 H    1       0.170000   12.460001   31.600000       1.0000      1.0079
  426   2 H    1       9.800000   -1.010000   31.650002       1.0000      1.0079
  427   1 O    8      -5.330000    9.720000   24.530001       6.0000     15.9994
  428   2 H    1      -6.280000    9.480001   24.350002       1.0000      1.0079
  429   2 H    1      -5.110001    9.140000   25.330002       1.0000      1.0079
  430   1 O    8     -16.370001   10.300001   25.120001       6.0000     15.9994
  431   2 H    1     -16.930000    9.630001   25.590000       1.0000      1.0079
  432   2 H    1     -16.140001   10.040001   24.220001       1.0000      1.0079
  433   1 O    8      -3.060000  -18.020000   20.330000       6.0000     15.9994
  434   2 H    1      -2.630000  -18.840000   20.690001       1.0000      1.0079
  435   2 H    1      -3.420000  -17.670000   21.220001       1.0000      1.0079
  436   1 O    8       3.570000   27.280003   28.880003       6.0000     15.9994
  437   2 H    1       3.770000   27.950001   29.570004       1.0000      1.0079
  438   2 H    1      12.140001   13.150001   28.000002       1.0000      1.0079
  439   1 O    8     -10.250001    8.660001   19.580000       6.0000     15.9994
  440   2 H    1     -10.680000    9.310000   20.250000       1.0000      1.0079
  441   2 H    1      -9.490001    8.380001   20.050001       1.0000      1.0079
  442   1 O    8      14.200001   12.770000   33.410000       6.0000     15.9994
  443   2 H    1      14.650001   13.610001   33.120003       1.0000      1.0079
  444   2 H    1      14.730001   12.010001   32.950001       1.0000      1.0079
  445   1 O    8     -23.530003    5.220000   17.180000       6.0000     15.9994
  446   2 H    1     -23.630001    6.110000   16.750000       1.0000      1.0079
  447   2 H    1     -23.270000    4.570000   16.420000       1.0000      1.0079
  448   1 O    8      -8.870000    9.250001   15.720000       6.0000     15.9994
  449   2 H    1      -8.750001    9.890000   15.020000       1.0000      1.0079
  450   2 H    1       7.950000    9.790000   16.540001       1.0000      1.0079
  451   1 O    8       4.850000    0.130000   30.480001       6.0000     15.9994
  452   2 H    1       5.690000    0.240000   31.030003       1.0000      1.0079
  453   2 H    1       4.880000    0.850000   29.830000       1.0000      1.0079
  454   1 O    8       2.220000   14.280001   24.660000       6.0000     15.9994
  455   2 H    1       3.130000   14.230001   24.270000       1.0000      1.0079
  456   2 H    1       2.250000   14.780001   25.480001       1.0000      1.0079
  457   1 O    8      -1.460000  -19.070000    9.390000       6.0000     15.9994
  458   2 H    1      -0.430000  -19.310001    9.470000       1.0000      1.0079
  459   2 H    1      -1.850000  -19.110001   10.290001       1.0000      1.0079
  460   1 O    8       1.590000    9.140000   18.060001       6.0000     15.9994
  461   2 H    1       2.240000    9.340000   17.370001       1.0000      1.0079
  462   2 H    1     -16.130001    9.540001   17.700001       1.0000      1.0079
  463   1 O    8     -17.600000  -21.920002   19.960001       6.0000     15.9994
  464   2 H    1     -16.639999  -22.130001   19.870001       1.0000      1.0079
  465   2 H    1     -17.840000  -21.800001   19.040001       1.0000      1.0079
  466   1 O    8       2.930000   -3.040000   13.670001       6.0000     15.9994
  467   2 H    1       2.750000   -2.110000   14.030001       1.0000      1.0079
  468   2 H    1       3.390000   -3.760000   14.330001       1.0000      1.0079
  469   1 O    8      -5.520000    0.020000   29.010000       6.0000     15.9994
  470   2 H    1      -5.090000    0.320000   28.100002       1.0000      1.0079
  471   2 H    1      -6.480000    0.110000   28.970001       1.0000      1.0079
  472   1 O    8       1.700000    2.470000   29.900002       6.0000     15.9994
  473   2 H    1       0.840000    1.960000   29.940002       1.0000      1.0079
  474   2 H    1       1.910000    2.440000   30.890003       1.0000      1.0079
  475   1 O    8      18.930000    6.040000   19.560001       6.0000     15.9994
  476   2 H    1      19.440001    5.390000   20.180000       1.0000      1.0079
  477   2 H    1      19.410002    6.000000   18.710001       1.0000      1.0079
  478   1 O    8     -11.450001   26.520002   12.740001       6.0000     15.9994
  479   2 H    1     -12.410001   26.560001   12.990000       1.0000      1.0079
  480   2 H    1     -11.290001   25.620001   12.340001       1.0000      1.0079
  481   1 O    8       3.520000    8.050001   32.550003       6.0000     15.9994
  482   2 H    1       3.660000    8.920000   32.960003       1.0000      1.0079
  483   2 H    1       2.630000    7.910000   32.170002       1.0000      1.0079
  484   1 O    8      -1.450000   44.110001   18.110001       6.0000     15.9994
  485   2 H    1      -0.790000   44.630005   18.620001       1.0000      1.0079
  486   2 H    1      -1.360000   43.190002   18.460001       1.0000      1.0079
  487   1 O    8      -0.910000   35.890003   25.040001       6.0000     15.9994
  488   2 H    1      -0.830000   35.290001   25.840000       1.0000      1.0079
  489   2 H    1      -1.710000   35.610001   24.500000       1.0000      1.0079
  490   1 O    8       9.590000   22.770002   12.030001       6.0000     15.9994
  491   2 H    1       9.510000   23.750000   12.210001       1.0000      1.0079
  492   2 H    1       9.870001   22.290001   12.870001       1.0000      1.0079
  493   1 O    8       1.850000   10.970000   32.880001       6.0000     15.9994
  494   2 H    1      -6.670001   25.840000   33.830002       1.0000      1.0079
  495   2 H    1       1.470000   10.100000   32.840000       1.0000      1.0079
  496   1 O    8       9.470000    5.700001   29.420002       6.0000     15.9994
  497   2 H    1       0.010000   20.170002   29.570004       1.0000      1.0079
  498   2 H    1       1.610000   19.610001   29.770002       1.0000      1.0079
  499   1 O    8      12.200001   18.930000   21.300001       6.0000     15.9994
  500   2 H    1      13.080001   19.390001   21.430000       1.0000      1.0079
  501   2 H    1      12.560000   17.950001   21.390001       1.0000      1.0079
  502   1 O    8       6.200000    8.260000   29.970001       6.0000     15.9994
  503   2 H    1       6.820001    8.760000   29.380001       1.0000      1.0079
  504   2 H    1       6.170001    8.630000   30.890003       1.0000      1.0079
  505   1 O    8      19.050001    6.470000   10.240001       6.0000     15.9994
[...]
    899      3      Pt          0.00991997    -0.00402845     0.00321452
    900      3      Pt         -0.00165569    -0.00988995    -0.00069330
    901      3      Pt          0.01259820     0.01478071     0.00816892
    902      3      Pt         -0.00500352     0.00310954    -0.01373885
    903      3      Pt         -0.00973034    -0.00027046    -0.00125377
    904      3      Pt         -0.00124997     0.00861953    -0.00226919
    905      3      Pt         -0.00788243    -0.00569479    -0.00062716
    906      3      Pt         -0.00294533     0.00519163     0.01568731
 SUM OF ATOMIC FORCES          -0.00400024    -0.01955679    -0.01678561     0.02608116

 STRESS| Analytical stress tensor [GPa]
 STRESS|                        x                   y                   z
 STRESS|      x       -2.48628732107E+00   1.11299613718E-01   5.83950360880E-02
 STRESS|      y        1.11299613718E-01  -2.28461417299E+00   2.45481329854E-02
 STRESS|      z        5.83950360880E-02   2.45481329854E-02   1.46116039879E-02
 STRESS| 1/3 Trace                                            -1.58542996336E+00
 STRESS| Determinant                                           9.24237825965E-02

 STRESS| Eigenvectors and eigenvalues of the analytical stress tensor [GPa]
 STRESS|                        1                   2                   3
 STRESS| Eigenvalues  -2.53637756517E+00  -2.23620745174E+00   1.62951268398E-02
 STRESS|      x           0.915093488635      0.402535742333      0.023851272524
 STRESS|      y          -0.402880256517      0.915176384093      0.011818836950
 STRESS|      z          -0.017070617039     -0.020424547529      0.999645653165

 -------------------------------------------------------------------------------
 -                                                                             -
 -                                DBCSR STATISTICS                             -
 -                                                                             -
 -------------------------------------------------------------------------------
 COUNTER                                    TOTAL       BLAS       SMM       ACC
 flops     5 x     5 x   288          86702976000       0.0%    100.0%      0.0%
 flops     5 x     5 x   292          87907184000       0.0%    100.0%      0.0%
 flops    13 x     5 x   288          97904102400       0.0%    100.0%      0.0%
 flops     5 x    13 x   288          98035891200       0.0%    100.0%      0.0%
 flops    20 x    13 x   288          99117158400       0.0%    100.0%      0.0%
 flops    13 x    20 x   288          99213004800       0.0%    100.0%      0.0%
 flops    13 x     5 x   292          99263881600       0.0%    100.0%      0.0%
 flops     5 x    13 x   292          99397500800       0.0%    100.0%      0.0%
 flops    20 x    13 x   292         100493785600       0.0%    100.0%      0.0%
 flops    13 x    20 x   292         100590963200       0.0%    100.0%      0.0%
 flops    13 x    13 x   288         104531880960       0.0%    100.0%      0.0%
 flops    13 x    13 x   292         105983712640       0.0%    100.0%      0.0%
 flops    20 x     5 x   288         108453888000       0.0%    100.0%      0.0%
 flops     5 x    20 x   288         108665856000       0.0%    100.0%      0.0%
 flops    20 x     5 x   292         109960192000       0.0%    100.0%      0.0%
 flops     5 x    20 x   292         110175104000       0.0%    100.0%      0.0%
 flops    20 x    20 x   288         431972352000       0.0%    100.0%      0.0%
 flops    20 x    20 x   292         437971968000       0.0%    100.0%      0.0%
 flops     5 x     5 x   320         578019840000       0.0%    100.0%      0.0%
 flops    13 x     5 x   320         652694016000       0.0%    100.0%      0.0%
 flops     5 x    13 x   320         653572608000       0.0%    100.0%      0.0%
 flops    20 x    13 x   320         660781056000       0.0%    100.0%      0.0%
 flops    13 x    20 x   320         661420032000       0.0%    100.0%      0.0%
 flops    13 x    13 x   320         696879206400       0.0%    100.0%      0.0%
 flops    20 x     5 x   320         723025920000       0.0%    100.0%      0.0%
 flops     5 x    20 x   320         724439040000       0.0%    100.0%      0.0%
 flops    20 x    20 x   320        2879815680000       0.0%    100.0%      0.0%
 flops inhomo. stacks                           0       0.0%      0.0%      0.0%
 flops total                        10.716989E+12       0.0%    100.0%      0.0%
 flops max/rank                    174.000000E+09       0.0%    100.0%      0.0%
 matmuls inhomo. stacks                         0       0.0%      0.0%      0.0%
 matmuls total                          154375680       0.0%    100.0%      0.0%
 number of processed stacks                409600       0.0%    100.0%      0.0%
 average stack size                                     0.0     376.9       0.0
 marketing flops                    30.449955E+12
 -------------------------------------------------------------------------------
 # multiplications                             80
 max memory usage/rank               1.871667E+09
 # max total images/rank                        1
 # max 3D layers                                1
 # MPI messages exchanged                   71680
 MPI messages size (bytes):
  total size                       215.263904E+09
  min size                           2.762496E+06
  max size                           3.077120E+06
  average size                       3.003124E+06
 MPI breakdown and total messages size (bytes):
             size <=      128                   0                        0
       128 < size <=     8192                   0                        0
      8192 < size <=    32768                   0                        0
     32768 < size <=   131072                   0                        0
    131072 < size <=  4194304               71680             215264000000
   4194304 < size <= 16777216                   0                        0
  16777216 < size                               0                        0
 -------------------------------------------------------------------------------
 -                                                                             -
 -                      DBCSR MESSAGE PASSING PERFORMANCE                      -
 -                                                                             -
 -------------------------------------------------------------------------------
 ROUTINE             CALLS      AVE VOLUME [Bytes]
 MP_Bcast               28                     12.
 MP_Allreduce          634                     10.
 MP_Alltoall          2240                1982273.
 MP_ISend             2560                1329597.
 MP_IRecv             2560                1310413.
 -------------------------------------------------------------------------------

 -------------------------------------------------------------------------------
 -                                                                             -
 -                                DBM STATISTICS                               -
 -                                                                             -
 -------------------------------------------------------------------------------
    M  x    N  x    K                                          COUNT     PERCENT
 -------------------------------------------------------------------------------

 -------------------------------------------------------------------------------
 -                                                                             -
 -                                GRID STATISTICS                              -
 -                                                                             -
 -------------------------------------------------------------------------------
 LP    KERNEL             BACKEND                              COUNT     PERCENT
 3     collocate general  REF                               55592080      18.90%
 3     integrate general  REF                               54955163      18.68%
 2     collocate general  REF                               52221760      17.75%
 2     integrate general  REF                               51568988      17.53%
 4     collocate general  REF                               39169840      13.31%
 4     integrate general  REF                               38680217      13.15%
 6     integrate general  REF                                 694901       0.24%
 5     integrate general  REF                                 652772       0.22%
 7     integrate general  REF                                 489623       0.17%
 0     collocate general  REF                                 115968       0.04%
 0     integrate general  REF                                  57984       0.02%
 -------------------------------------------------------------------------------

 MEMORY| Estimated peak process memory [MiB]                                2096

 -------------------------------------------------------------------------------
 ----                             MULTIGRID INFO                            ----
 -------------------------------------------------------------------------------
 count for grid        1:         730642          cutoff [a.u.]          200.00
 count for grid        2:         807275          cutoff [a.u.]           66.67
 count for grid        3:         741379          cutoff [a.u.]           22.22
 count for grid        4:         831179          cutoff [a.u.]            7.41
 total gridlevel count  :        3110475

 -------------------------------------------------------------------------------
 -                                                                             -
 -                         MESSAGE PASSING PERFORMANCE                         -
 -                                                                             -
 -------------------------------------------------------------------------------

 ROUTINE             CALLS      AVE VOLUME [Bytes]
 MP_Group                4
 MP_Bcast              260                2270636.
 MP_Allreduce         1354                   1850.
 MP_Sync                83
 MP_Alltoall          1776               15169109.
 MP_SendRecv           252                  13884.
 MP_ISendRecv        20160                 113680.
 MP_Wait             45108
 MP_ISend            23328                 340076.
 MP_IRecv            23328                 340076.
 MP_Recv               308                2460160.
 MP_Write_All            3                1540656.
 -------------------------------------------------------------------------------


 -------------------------------------------------------------------------------
 -                                                                             -
 -                           R E F E R E N C E S                               -
 -                                                                             -
 -------------------------------------------------------------------------------
 
 CP2K version 2022.1, the CP2K developers group (2022).
 CP2K is freely available from https://www.cp2k.org/ .

 Kuehne,Thomas D.; Iannuzzi,Marcella; Del Ben,Mauro;
 Rybkin,Vladimir V.; Seewald,Patrick; Stein,Frederick; Laino,Teodoro;
 Khaliullin,Rustam Z.; Schuett,Ole; Schiffmann,Florian; Golze,Dorothea;
 Wilhelm,Jan; Chulkov,Sergey; Bani-Hashemian,Mohammad Hossein;
 Weber,Valery; Borstnik,Urban; Taillefumier,Mathieu;
 Jakobovits,Alice Shoshana; Lazzaro,Alfio; Pabst,Hans; Mueller,Tiziano;
 Schade,Robert; Guidon,Manuel; Andermatt,Samuel; Holmberg,Nico;
 Schenter,Gregory K.; Hehn,Anna; Bussy,Augustin; Belleflamme,Fabian;
 Tabacchi,Gloria; Gloess,Andreas; Lass,Michael; Bethune,Iain;
 Mundy,Christopher J.; Plessl,Christian; Watkins,Matt;
 VandeVondele,Joost; Krack,Matthias; Hutter,Juerg. 
 The Journal of Chemical Physics, 152 (19), (2020). 
 CP2K: An electronic structure and molecular dynamics software package -
 Quickstep: Efficient and accurate electronic structure calculations.
 https://doi.org/10.1063/5.0007045

 Goerigk, Lars; Hansen, Andreas; Bauer, Christoph; Ehrlich, Stephan;
 Najibi, Asim; Grimme, Stefan. , 19 (48), (2017). 
 A look at the density functional theory zoo with the advanced GMTKN55 database
 for general main group thermochemistry, kinetics and noncovalent interactions.
 https://doi.org/10.1039/C7CP04913G

 Schuett, Ole; Messmer, Peter; Hutter, Juerg; VandeVondele, Joost. 
 Electronic Structure Calculations on Graphics Processing Units, John
 Wiley & Sons, Ltd, 173-190 (2016). 
 GPU-Accelerated Sparse Matrix-Matrix Multiplication for
 Linear Scaling Density Functional Theory.
 https://doi.org/10.1002/9781118670712.ch8

 Heinecke, A; Henry, G; Hutchinson, M; Pabst, H. 
 Proceedings of Intl. Supercomputing Conference, 981-991 (2016). 
 LIBXSMM: Accelerating Small Matrix Multiplications
 by Runtime Code Generation.
 https://doi.org/10.1109/SC.2016.83

 Borstnik, U; VandeVondele, J; Weber, V; Hutter, J. 
 PARALLEL COMPUTING, 40 (5-6), 47-58 (2014). 
 Sparse matrix multiplication: The distributed block-compressed sparse
 row library.
 https://doi.org/10.1016/j.parco.2014.03.012

 Hutter, J; Iannuzzi, M; Schiffmann, F; VandeVondele, J. 
 WIREs Comput Mol Sci., 4 (1), 15-25 (2014). 
 CP2K: atomistic simulations of condensed matter systems.
 https://doi.org/10.1002/wcms.1159

 Marek, A; Blum, V; Johanni, R; Havu, V; Lang, B; Auckenthaler, T;
 Heinecke, A; Bungartz, H; Lederer, H. 
 Journal of Physics: Condensed Matter, 26 (21), (2014). 
 The ELPA library: scalable parallel eigenvalue solutions for
 electronic structure
 theory and computational science.
 https://doi.org/10.1088/0953-8984/26/21/213201

 Grimme, S; Ehrlich, S; Goerigk, L. 
 JOURNAL OF COMPUTATIONAL CHEMISTRY, 32, 1456 (2011). 
 Effect of the damping function in dispersion corrected density functional theory.
 https://doi.org/10.1002/jcc.21759

 Grimme, S; Antony, J; Ehrlich, S; Krieg, H. 
 JOURNAL OF CHEMICAL PHYSICS, 132 (15), 154104 (2010). 
 A consistent and accurate ab initio parametrization of density
 functional dispersion correction (DFT-D) for the 94 elements H-Pu.
 https://doi.org/10.1063/1.3382344

 VandeVondele, J; Hutter, J. 
 JOURNAL OF CHEMICAL PHYSICS, 127 (11), 114105 (2007). 
 Gaussian basis sets for accurate calculations on molecular systems in
 gas and condensed phases.
 https://doi.org/10.1063/1.2770708

 Krack, M. 
 THEORETICAL CHEMISTRY ACCOUNTS, 114 (1-3), 145-152 (2005). 
 Pseudopotentials for H to Kr optimized for gradient-corrected
 exchange-correlation functionals.
 https://doi.org/10.1007/s00214-005-0655-y

 VandeVondele, J; Krack, M; Mohamed, F; Parrinello, M; Chassaing, T;
 Hutter, J. COMPUTER PHYSICS COMMUNICATIONS, 167 (2), 103-128 (2005). 
 QUICKSTEP: Fast and accurate density functional calculations using a
 mixed Gaussian and plane waves approach.
 https://doi.org/10.1016/j.cpc.2004.12.014

 Frigo, M; Johnson, SG. 
 PROCEEDINGS OF THE IEEE, 93 (2), 216-231 (2005). 
 The design and implementation of FFTW3.
 https://doi.org/10.1109/JPROC.2004.840301

 Hartwigsen, C; Goedecker, S; Hutter, J. 
 PHYSICAL REVIEW B, 58 (7), 3641-3662 (1998). 
 Relativistic separable dual-space Gaussian pseudopotentials from H to Rn.
 https://doi.org/10.1103/PhysRevB.58.3641

 Lippert, G; Hutter, J; Parrinello, M. 
 MOLECULAR PHYSICS, 92 (3), 477-487 (1997). 
 A hybrid Gaussian and plane wave density functional scheme.
 https://doi.org/10.1080/002689797170220

 Perdew, JP; Burke, K; Ernzerhof, M. 
 PHYSICAL REVIEW LETTERS, 77 (18), 3865-3868 (1996). 
 Generalized gradient approximation made simple.
 https://doi.org/10.1103/PhysRevLett.77.3865

 Goedecker, S; Teter, M; Hutter, J. 
 PHYSICAL REVIEW B, 54 (3), 1703-1710 (1996). 
 Separable dual-space Gaussian pseudopotentials.
 https://doi.org/10.1103/PhysRevB.54.1703


 -------------------------------------------------------------------------------
 -                                                                             -
 -                                T I M I N G                                  -
 -                                                                             -
 -------------------------------------------------------------------------------
 SUBROUTINE                       CALLS  ASD         SELF TIME        TOTAL TIME
                                MAXIMUM       AVERAGE  MAXIMUM  AVERAGE  MAXIMUM
 CP2K                                 1  1.0    0.027    0.036  946.377  946.381
 qs_forces                            1  2.0    0.002    0.003  946.000  946.003
 qs_energies                          1  3.0    0.000    0.000  933.504  933.515
 scf_env_do_scf                       1  4.0    0.000    0.000  925.280  925.523
 scf_env_do_scf_inner_loop           79  5.0    0.004    0.012  925.280  925.523
 qs_scf_new_mos                      79  6.0    0.005    0.013  377.013  377.499
 eigensolver                         79  7.0    0.007    0.010  350.256  350.627
 rebuild_ks_matrix                   80  7.0    0.000    0.000  292.538  292.580
 qs_ks_build_kohn_sham_matrix        80  8.0    0.012    0.014  292.537  292.580
 qs_ks_update_qs_env                 79  6.0    0.001    0.001  284.549  284.594
 qs_rho_update_rho_low               80  6.0    0.001    0.001  249.673  249.696
 calculate_rho_elec                  80  7.0    0.188    0.223  249.672  249.696
 sum_up_and_integrate                80  9.0    0.336    0.408  245.557  245.607
 integrate_v_rspace                  80 10.0    0.003    0.004  245.221  245.304
 grid_collocate_task_list            80  8.0  219.505  225.580  219.505  225.580
 grid_integrate_task_list            80 11.0  213.916  219.250  213.916  219.250
 cp_fm_diag_elpa                     79  8.0    0.001    0.001  205.162  205.675
 cp_fm_diag_elpa_base                79  9.0  201.992  202.724  204.822  204.920
 cp_fm_triangular_multiply          237  8.0  142.172  143.936  142.172  143.936
 pw_transfer                       1600 10.9    0.114    0.154   44.150   45.125
 fft_wrap_pw1pw2                   1440 12.0    0.014    0.017   43.644   44.562
 rs_pw_transfer                     644 10.5    0.007    0.008   38.858   43.120
 fft_wrap_pw1pw2_200                960 13.3    3.947    4.285   42.045   42.961
 qs_vxc_create                       80  9.0    0.002    0.003   41.455   41.695
 xc_vxc_pw_create                    80 10.0    0.735    0.776   41.453   41.693
 fft3d_ps                          1440 14.0   15.912   17.979   32.137   33.429
 density_rs2pw                       80  8.0    0.005    0.006   27.728   31.882
 xc_pw_derive                       480 12.0    0.008    0.009   26.454   27.736
 xc_rho_set_and_dset_create          80 11.0    0.390    0.428   22.189   23.863
 potential_pw2rs                     80 11.0    0.030    0.035   23.087   23.157
 mp_waitany                       23328 12.4   16.774   21.800   16.774   21.800
 cp_dbcsr_plus_fm_fm_t_native        80  8.0    0.004    0.008   19.343   20.210
 calculate_dm_sparse                 79  7.0    0.025    0.031   19.404   20.182
 rs_pw_transfer_RS2PW_200            82 10.0    5.156    5.578   15.503   19.717
 -------------------------------------------------------------------------------

 The number of warnings for this run is : 1
 
 -------------------------------------------------------------------------------
  **** **** ******  **  PROGRAM ENDED AT                 2023-11-26 19:26:20.820
 ***** ** ***  *** **   PROGRAM RAN ON                                     cu054
 **    ****   ******    PROGRAM RAN BY                                     jxzhu
 ***** **    ** ** **   PROGRAM PROCESS ID                                 63264
  **** **  *******  **  PROGRAM STOPPED IN /public/home/jxzhu/tmp_calc/af2075565
                                           805657d94fa4669dad6f4b174b0a4fb/calc/
                                           001300.000/pbc
