 DBCSR| CPU Multiplication driver                                           XSMM
 DBCSR| Multrec recursion limit                                              512
 DBCSR| Multiplication stack size                                           1000
 DBCSR| Maximum elements for images                                    UNLIMITED
 DBCSR| Multiplicative factor virtual images                                   1
 DBCSR| Use multiplication densification                                       T
 DBCSR| Multiplication size stacks                                             3
 DBCSR| Use memory pool for CPU allocation                                     F
 DBCSR| Number of 3D layers                                               SINGLE
 DBCSR| Use MPI memory allocation                                              F
 DBCSR| Use RMA algorithm                                                      F
 DBCSR| Use Communication thread                                               T
 DBCSR| Communication thread load                                             87
 DBCSR| MPI: My node id                                                        0
 DBCSR| MPI: Number of nodes                                                  64
 DBCSR| OMP: Current number of threads                                         1
 DBCSR| OMP: Max number of threads                                             1
 DBCSR| Split modifier for TAS multiplication algorithm                  1.0E+00


  **** **** ******  **  PROGRAM STARTED AT               2023-11-26 22:33:36.596
 ***** ** ***  *** **   PROGRAM STARTED ON                                 cu054
 **    ****   ******    PROGRAM STARTED BY                                 jxzhu
 ***** **    ** ** **   PROGRAM PROCESS ID                                 33900
  **** **  *******  **  PROGRAM STARTED IN /public/home/jxzhu/tmp_calc/af2075565
                                           805657d94fa4669dad6f4b174b0a4fb/calc/
                                           000000.000/pbc

 CP2K| version string:                                       CP2K version 2022.1
 CP2K| source code revision number:                                  git:2caeb6f
 CP2K| cp2kflags: omp libint fftw3 libxc elpa parallel mpi3 scalapack cosma xsmm
 CP2K|             plumed2 spglib mkl sirius libvori libbqb
 CP2K| is freely available from                            https://www.cp2k.org/
 CP2K| Program compiled at                           Mon Jul 3 17:37:06 CST 2023
 CP2K| Program compiled on                                                 mu003
 CP2K| Program compiled for                                                local
 CP2K| Data directory path                             /public/home/jxzhu/basis/
 CP2K| Input file name                                                 input.inp
 
 GLOBAL| Force Environment number                                              1
 GLOBAL| Basis set file name                                        BASIS_MOLOPT
 GLOBAL| Potential file name                                      GTH_POTENTIALS
 GLOBAL| MM Potential file name                                     MM_POTENTIAL
 GLOBAL| Coordinate file name                                          coord.xyz
 GLOBAL| Method name                                                        CP2K
 GLOBAL| Project name                                                       cp2k
 GLOBAL| Run type                                                   ENERGY_FORCE
 GLOBAL| FFT library                                                       FFTW3
 GLOBAL| Diagonalization library                                            ELPA
 GLOBAL| Minimum number of eigenvectors for ELPA usage                        16
 GLOBAL| Orthonormality check for eigenvectors                          DISABLED
 GLOBAL| Matrix multiplication library                                     COSMA
 GLOBAL| All-to-all communication in single precision                          F
 GLOBAL| FFTs using library dependent lengths                                  F
 GLOBAL| Grid backend                                                       AUTO
 GLOBAL| Global print level                                               MEDIUM
 GLOBAL| MPI I/O enabled                                                       T
 GLOBAL| Total number of message passing processes                            64
 GLOBAL| Number of threads for this process                                    1
 GLOBAL| This output is from process                                           0
 GLOBAL| Stack size for threads created by OpenMP (OMP_STACKSIZE)        default
 GLOBAL| CPU model name                 Intel(R) Xeon(R) Gold 6338 CPU @ 2.00GHz
 GLOBAL| CPUID                                                              1003

 MEMORY| system memory details [Kb]
 MEMORY|                        rank 0           min           max       average
 MEMORY| MemTotal            263619172     263619172     263619172     263619172
 MEMORY| MemFree             210614740     210614120     210616600     210614323
 MEMORY| Buffers                  3320          3320          3320          3320
 MEMORY| Cached                4113964       4113964       4113964       4113964
 MEMORY| Slab                  1791252       1791252       1791252       1791252
 MEMORY| SReclaimable           243100        243100        243100        243100
 MEMORY| MemLikelyFree       214975124     214974504     214976984     214974707


 *** Fundamental physical constants (SI units) ***

 *** Literature: B. J. Mohr and B. N. Taylor,
 ***             CODATA recommended values of the fundamental physical
 ***             constants: 2006, Web Version 5.1
 ***             http://physics.nist.gov/constants

 Speed of light in vacuum [m/s]                             2.99792458000000E+08
 Magnetic constant or permeability of vacuum [N/A**2]       1.25663706143592E-06
 Electric constant or permittivity of vacuum [F/m]          8.85418781762039E-12
 Planck constant (h) [J*s]                                  6.62606896000000E-34
 Planck constant (h-bar) [J*s]                              1.05457162825177E-34
 Elementary charge [C]                                      1.60217648700000E-19
 Electron mass [kg]                                         9.10938215000000E-31
 Electron g factor [ ]                                     -2.00231930436220E+00
 Proton mass [kg]                                           1.67262163700000E-27
 Fine-structure constant                                    7.29735253760000E-03
 Rydberg constant [1/m]                                     1.09737315685270E+07
 Avogadro constant [1/mol]                                  6.02214179000000E+23
 Boltzmann constant [J/K]                                   1.38065040000000E-23
 Atomic mass unit [kg]                                      1.66053878200000E-27
 Bohr radius [m]                                            5.29177208590000E-11

 *** Conversion factors ***

 [u] -> [a.u.]                                              1.82288848426455E+03
 [Angstrom] -> [Bohr] = [a.u.]                              1.88972613288564E+00
 [a.u.] = [Bohr] -> [Angstrom]                              5.29177208590000E-01
 [a.u.] -> [s]                                              2.41888432650478E-17
 [a.u.] -> [fs]                                             2.41888432650478E-02
 [a.u.] -> [J]                                              4.35974393937059E-18
 [a.u.] -> [N]                                              8.23872205491840E-08
 [a.u.] -> [K]                                              3.15774647902944E+05
 [a.u.] -> [kJ/mol]                                         2.62549961709828E+03
 [a.u.] -> [kcal/mol]                                       6.27509468713739E+02
 [a.u.] -> [Pa]                                             2.94210107994716E+13
 [a.u.] -> [bar]                                            2.94210107994716E+08
 [a.u.] -> [atm]                                            2.90362800883016E+08
 [a.u.] -> [eV]                                             2.72113838565563E+01
 [a.u.] -> [Hz]                                             6.57968392072181E+15
 [a.u.] -> [1/cm] (wave numbers)                            2.19474631370540E+05
 [a.u./Bohr**2] -> [1/cm]                                   5.14048714338585E+03
 

 CELL_TOP| Volume [angstrom^3]:                                     10221.806009
 CELL_TOP| Vector a [angstrom    16.869     0.000     0.000   |a| =    16.869000
 CELL_TOP| Vector b [angstrom    -8.434    14.609     0.000   |b| =    16.869015
 CELL_TOP| Vector c [angstrom     0.000     0.000    41.478   |c| =    41.478000
 CELL_TOP| Angle (b,c), alpha [degree]:                                90.000000
 CELL_TOP| Angle (a,c), beta  [degree]:                                90.000000
 CELL_TOP| Angle (a,b), gamma [degree]:                               119.999970
 CELL_TOP| Numerically orthorhombic:                                          NO
 
 GENERATE|  Preliminary Number of Bonds generated:                             0
 GENERATE|  Achieved consistency in connectivity generation.

 CELL| Volume [angstrom^3]:                                         10221.806009
 CELL| Vector a [angstrom]:      16.869     0.000     0.000   |a| =    16.869000
 CELL| Vector b [angstrom]:      -8.434    14.609     0.000   |b| =    16.869015
 CELL| Vector c [angstrom]:       0.000     0.000    41.478   |c| =    41.478000
 CELL| Angle (b,c), alpha [degree]:                                    90.000000
 CELL| Angle (a,c), beta  [degree]:                                    90.000000
 CELL| Angle (a,b), gamma [degree]:                                   119.999970
 CELL| Numerically orthorhombic:                                              NO

 CELL_REF| Volume [angstrom^3]:                                     10221.806009
 CELL_REF| Vector a [angstrom    16.869     0.000     0.000   |a| =    16.869000
 CELL_REF| Vector b [angstrom    -8.434    14.609     0.000   |b| =    16.869015
 CELL_REF| Vector c [angstrom     0.000     0.000    41.478   |c| =    41.478000
 CELL_REF| Angle (b,c), alpha [degree]:                                90.000000
 CELL_REF| Angle (a,c), beta  [degree]:                                90.000000
 CELL_REF| Angle (a,b), gamma [degree]:                               119.999970
 CELL_REF| Numerically orthorhombic:                                          NO

 *******************************************************************************
 *******************************************************************************
 **                                                                           **
 **     #####                         ##              ##                      **
 **    ##   ##            ##          ##              ##                      **
 **   ##     ##                       ##            ######                    **
 **   ##     ##  ##   ##  ##   #####  ##  ##   ####   ##    #####    #####    **
 **   ##     ##  ##   ##  ##  ##      ## ##   ##      ##   ##   ##  ##   ##   **
 **   ##  ## ##  ##   ##  ##  ##      ####     ###    ##   ######   ######    **
 **    ##  ###   ##   ##  ##  ##      ## ##      ##   ##   ##       ##        **
 **     #######   #####   ##   #####  ##  ##  ####    ##    #####   ##        **
 **           ##                                                    ##        **
 **                                                                           **
 **                                                ... make the atoms dance   **
 **                                                                           **
 **            Copyright (C) by CP2K developers group (2000-2022)             **
 **                      J. Chem. Phys. 152, 194103 (2020)                    **
 **                                                                           **
 *******************************************************************************

 DFT| Spin restricted Kohn-Sham (RKS) calculation                            RKS
 DFT| Multiplicity                                                             1
 DFT| Number of spin states                                                    1
 DFT| Charge                                                                   0
 DFT| Self-interaction correction (SIC)                                       NO
 DFT| Cutoffs: density                                              1.000000E-10
 DFT|          gradient                                             1.000000E-10
 DFT|          tau                                                  1.000000E-10
 DFT|          cutoff_smoothing_range                               0.000000E+00
 DFT| XC density smoothing                                                  NONE
 DFT| XC derivatives                                                          PW

 FUNCTIONAL| PBE:
 FUNCTIONAL| J.P.Perdew, K.Burke, M.Ernzerhof, Phys. Rev. Letter, vol. 77, n 18,
 FUNCTIONAL|  pp. 3865-3868, (1996){spin unpolarized}                           

 vdW POTENTIAL|                                                   Pair Potential
 vdW POTENTIAL|          DFT-D3 (Version 3.1)
 vdW POTENTIAL|          Potential Form: S. Grimme et al, JCP 132: 154104 (2010)
 vdW POTENTIAL|          Zero Damping
 vdW POTENTIAL|          Cutoff Radius [Bohr]:                             20.00
 vdW POTENTIAL|          s6 Scaling Factor:                               1.0000
 vdW POTENTIAL|          sr6 Scaling Factor:                              1.2170
 vdW POTENTIAL|          s8 Scaling Factor:                               0.7220
 vdW POTENTIAL|          Cutoff for CN calculation:                   0.1000E-05

 QS| Method:                                                                 GPW
 QS| Density plane wave grid type                        NON-SPHERICAL FULLSPACE
 QS| Number of grid levels:                                                    4
 QS| Density cutoff [a.u.]:                                                200.0
 QS| Multi grid cutoff [a.u.]: 1) grid level                               200.0
 QS|                           2) grid level                                66.7
 QS|                           3) grid level                                22.2
 QS|                           4) grid level                                 7.4
 QS| Grid level progression factor:                                          3.0
 QS| Relative density cutoff [a.u.]:                                        20.0
 QS| Interaction thresholds: eps_pgf_orb:                                3.2E-07
 QS|                         eps_filter_matrix:                          0.0E+00
 QS|                         eps_core_charge:                            1.0E-15
 QS|                         eps_rho_gspace:                             1.0E-13
 QS|                         eps_rho_rspace:                             1.0E-13
 QS|                         eps_gvg_rspace:                             3.2E-07
 QS|                         eps_ppl:                                    1.0E-02
 QS|                         eps_ppnl:                                   3.2E-09


 ATOMIC KIND INFORMATION

  1. Atomic kind: O                                     Number of atoms:     230

     Orbital Basis Set                                        DZVP-MOLOPT-SR-GTH

       Number of orbital shell sets:                                           1
       Number of orbital shells:                                               5
       Number of primitive Cartesian functions:                                5
       Number of Cartesian basis functions:                                   14
       Number of spherical basis functions:                                   13
       Norm type:                                                              2

       Normalised Cartesian orbitals:

                        Set   Shell   Orbital            Exponent    Coefficient

                          1       1    2s               10.389228       0.396646
                                                         3.849621       0.208811
                                                         1.388401      -0.301641
                                                         0.496955      -0.274061
                                                         0.162492      -0.033677

                          1       2    3s               10.389228       0.303673
                                                         3.849621       0.240943
                                                         1.388401      -0.313066
                                                         0.496955      -0.043055
                                                         0.162492       0.213991

                          1       3    3px              10.389228      -1.530415
                                                         3.849621      -1.371928
                                                         1.388401      -0.761951
                                                         0.496955      -0.253695
                                                         0.162492      -0.035541
                          1       3    3py              10.389228      -1.530415
                                                         3.849621      -1.371928
                                                         1.388401      -0.761951
                                                         0.496955      -0.253695
                                                         0.162492      -0.035541
                          1       3    3pz              10.389228      -1.530415
                                                         3.849621      -1.371928
                                                         1.388401      -0.761951
                                                         0.496955      -0.253695
                                                         0.162492      -0.035541

                          1       4    4px              10.389228      -0.565392
                                                         3.849621      -0.038231
                                                         1.388401      -0.382373
                                                         0.496955       0.179070
                                                         0.162492       0.122714
                          1       4    4py              10.389228      -0.565392
                                                         3.849621      -0.038231
                                                         1.388401      -0.382373
                                                         0.496955       0.179070
                                                         0.162492       0.122714
                          1       4    4pz              10.389228      -0.565392
                                                         3.849621      -0.038231
                                                         1.388401      -0.382373
                                                         0.496955       0.179070
                                                         0.162492       0.122714

                          1       5    4dx2             10.389228       1.867377
                                                         3.849621       0.670994
                                                         1.388401       1.353441
                                                         0.496955       0.273538
                                                         0.162492       0.006620
                          1       5    4dxy             10.389228       3.234392
                                                         3.849621       1.162195
                                                         1.388401       2.344229
                                                         0.496955       0.473781
                                                         0.162492       0.011466
                          1       5    4dxz             10.389228       3.234392
                                                         3.849621       1.162195
                                                         1.388401       2.344229
                                                         0.496955       0.473781
                                                         0.162492       0.011466
                          1       5    4dy2             10.389228       1.867377
                                                         3.849621       0.670994
                                                         1.388401       1.353441
                                                         0.496955       0.273538
                                                         0.162492       0.006620
                          1       5    4dyz             10.389228       3.234392
                                                         3.849621       1.162195
                                                         1.388401       2.344229
                                                         0.496955       0.473781
                                                         0.162492       0.011466
                          1       5    4dz2             10.389228       1.867377
                                                         3.849621       0.670994
                                                         1.388401       1.353441
                                                         0.496955       0.273538
                                                         0.162492       0.006620

       Atomic covalent radius [Angstrom]:                                  0.730

       Atomic van der Waals radius [Angstrom]:                             1.520

     GTH Potential information for                                    GTH-PBE-q6

       Description:                       Goedecker-Teter-Hutter pseudopotential
                                           Goedecker et al., PRB 54, 1703 (1996)
                                          Hartwigsen et al., PRB 58, 3641 (1998)
                                                      Krack, TCA 114, 145 (2005)

       Gaussian exponent of the core charge distribution:               8.360253
       Electronic configuration (s p d ...):                               2   4

       Parameters of the local part of the GTH pseudopotential:

                          rloc        C1          C2          C3          C4
                        0.244554  -16.667215    2.487311

       Parameters of the non-local part of the GTH pseudopotential:

                   l      r(l)      h(i,j,l)

                   0    0.220956   18.337458
                   1    0.211332

  2. Atomic kind: H                                     Number of atoms:     460

     Orbital Basis Set                                        DZVP-MOLOPT-SR-GTH

       Number of orbital shell sets:                                           1
       Number of orbital shells:                                               3
       Number of primitive Cartesian functions:                                5
       Number of Cartesian basis functions:                                    5
       Number of spherical basis functions:                                    5
       Norm type:                                                              2

       Normalised Cartesian orbitals:

                        Set   Shell   Orbital            Exponent    Coefficient

                          1       1    2s               10.068468      -0.133023
                                                         2.680223      -0.177618
                                                         0.791502      -0.258419
                                                         0.239116      -0.107525
                                                         0.082193      -0.014019

                          1       2    3s               10.068468       0.344673
                                                         2.680223       1.819821
                                                         0.791502      -0.999069
                                                         0.239116       0.017430
                                                         0.082193       0.082660

                          1       3    3px              10.068468       0.155326
                                                         2.680223       0.367157
                                                         0.791502       0.311480
                                                         0.239116       0.080105
                                                         0.082193       0.033440
                          1       3    3py              10.068468       0.155326
                                                         2.680223       0.367157
                                                         0.791502       0.311480
                                                         0.239116       0.080105
                                                         0.082193       0.033440
                          1       3    3pz              10.068468       0.155326
                                                         2.680223       0.367157
                                                         0.791502       0.311480
                                                         0.239116       0.080105
                                                         0.082193       0.033440

       Atomic covalent radius [Angstrom]:                                  0.320

       Atomic van der Waals radius [Angstrom]:                             1.090

     GTH Potential information for                                    GTH-PBE-q1

       Description:                       Goedecker-Teter-Hutter pseudopotential
                                           Goedecker et al., PRB 54, 1703 (1996)
                                          Hartwigsen et al., PRB 58, 3641 (1998)
                                                      Krack, TCA 114, 145 (2005)

       Gaussian exponent of the core charge distribution:              12.500000
       Electronic configuration (s p d ...):                                   1

       Parameters of the local part of the GTH pseudopotential:

                          rloc        C1          C2          C3          C4
                        0.200000   -4.178900    0.724463

  3. Atomic kind: Pt                                    Number of atoms:     216

     Orbital Basis Set                      DZVP-A5-Q10-323-MOL-T1-DERIVED_SET-1

       Number of orbital shell sets:                                           1
       Number of orbital shells:                                               6
       Number of primitive Cartesian functions:                                5
       Number of Cartesian basis functions:                                   23
       Number of spherical basis functions:                                   20
       Norm type:                                                              2

       Normalised Cartesian orbitals:

                        Set   Shell   Orbital            Exponent    Coefficient

                          1       1    2s                2.521825       0.177473
                                                         1.453920      -0.063399
                                                         0.614053      -0.407089
                                                         0.232656       0.262254
                                                         0.074788       0.047371

                          1       2    3s                2.521825      -0.049056
                                                         1.453920       0.044904
                                                         0.614053      -0.009756
                                                         0.232656      -0.144709
                                                         0.074788       0.144085

                          1       3    3px               2.521825      -0.317572
                                                         1.453920       0.534826
                                                         0.614053      -0.489458
                                                         0.232656       0.245631
                                                         0.074788       0.018221
                          1       3    3py               2.521825      -0.317572
                                                         1.453920       0.534826
                                                         0.614053      -0.489458
                                                         0.232656       0.245631
                                                         0.074788       0.018221
                          1       3    3pz               2.521825      -0.317572
                                                         1.453920       0.534826
                                                         0.614053      -0.489458
                                                         0.232656       0.245631
                                                         0.074788       0.018221

                          1       4    4dx2              2.521825       3.008522
                                                         1.453920      -1.224251
                                                         0.614053       0.225691
                                                         0.232656       0.125144
                                                         0.074788      -0.015348
                          1       4    4dxy              2.521825       5.210912
                                                         1.453920      -2.120465
                                                         0.614053       0.390909
                                                         0.232656       0.216756
                                                         0.074788      -0.026584
                          1       4    4dxz              2.521825       5.210912
                                                         1.453920      -2.120465
                                                         0.614053       0.390909
                                                         0.232656       0.216756
                                                         0.074788      -0.026584
                          1       4    4dy2              2.521825       3.008522
                                                         1.453920      -1.224251
                                                         0.614053       0.225691
                                                         0.232656       0.125144
                                                         0.074788      -0.015348
                          1       4    4dyz              2.521825       5.210912
                                                         1.453920      -2.120465
                                                         0.614053       0.390909
                                                         0.232656       0.216756
                                                         0.074788      -0.026584
                          1       4    4dz2              2.521825       3.008522
                                                         1.453920      -1.224251
                                                         0.614053       0.225691
                                                         0.232656       0.125144
                                                         0.074788      -0.015348

                          1       5    5dx2              2.521825       0.698026
                                                         1.453920      -1.511486
                                                         0.614053      -0.335394
                                                         0.232656      -0.025564
                                                         0.074788      -0.002699
                          1       5    5dxy              2.521825       1.209017
                                                         1.453920      -2.617970
                                                         0.614053      -0.580920
                                                         0.232656      -0.044277
                                                         0.074788      -0.004674
                          1       5    5dxz              2.521825       1.209017
                                                         1.453920      -2.617970
                                                         0.614053      -0.580920
                                                         0.232656      -0.044277
                                                         0.074788      -0.004674
                          1       5    5dy2              2.521825       0.698026
                                                         1.453920      -1.511486
                                                         0.614053      -0.335394
                                                         0.232656      -0.025564
                                                         0.074788      -0.002699
                          1       5    5dyz              2.521825       1.209017
                                                         1.453920      -2.617970
                                                         0.614053      -0.580920
                                                         0.232656      -0.044277
                                                         0.074788      -0.004674
                          1       5    5dz2              2.521825       0.698026
                                                         1.453920      -1.511486
                                                         0.614053      -0.335394
                                                         0.232656      -0.025564
                                                         0.074788      -0.002699

                          1       6    6dx2              2.521825       0.831079
                                                         1.453920      -0.709226
                                                         0.614053      -0.137351
                                                         0.232656       0.068642
                                                         0.074788       0.011745
                          1       6    6dxy              2.521825       1.439472
                                                         1.453920      -1.228415
                                                         0.614053      -0.237899
                                                         0.232656       0.118891
                                                         0.074788       0.020343
                          1       6    6dxz              2.521825       1.439472
                                                         1.453920      -1.228415
                                                         0.614053      -0.237899
                                                         0.232656       0.118891
                                                         0.074788       0.020343
                          1       6    6dy2              2.521825       0.831079
                                                         1.453920      -0.709226
                                                         0.614053      -0.137351
                                                         0.232656       0.068642
                                                         0.074788       0.011745
                          1       6    6dyz              2.521825       1.439472
                                                         1.453920      -1.228415
                                                         0.614053      -0.237899
                                                         0.232656       0.118891
                                                         0.074788       0.020343
                          1       6    6dz2              2.521825       0.831079
                                                         1.453920      -0.709226
                                                         0.614053      -0.137351
                                                         0.232656       0.068642
                                                         0.074788       0.011745

       Atomic covalent radius [Angstrom]:                                  1.300

       Atomic van der Waals radius [Angstrom]:                             1.750

     GTH Potential information for                                   GTH-PBE-q10

       Description:                       Goedecker-Teter-Hutter pseudopotential
                                           Goedecker et al., PRB 54, 1703 (1996)
                                          Hartwigsen et al., PRB 58, 3641 (1998)
                                                      Krack, TCA 114, 145 (2005)

       Gaussian exponent of the core charge distribution:               1.317676
       Electronic configuration (s p d ...):                           1   0   9

       Parameters of the local part of the GTH pseudopotential:

                          rloc        C1          C2          C3          C4
                        0.616000   11.313635

       Parameters of the non-local part of the GTH pseudopotential:

                   l      r(l)      h(i,j,l)

                   0    0.550904    4.733491   -1.784594
                                   -1.784594    2.303901
                   1    0.674138    2.534798   -1.778066
                                   -1.778066    2.103836
                   2    0.457392   -7.264011    2.558665
                                    2.558665   -2.901253


 MOLECULE KIND INFORMATION


 All atoms are their own molecule, skipping detailed information


 TOTAL NUMBERS AND MAXIMUM NUMBERS

  Total number of            - Atomic kinds:                                   3
                             - Atoms:                                        906
                             - Shell sets:                                   906
                             - Shells:                                      3826
                             - Primitive Cartesian functions:               4530
                             - Cartesian basis functions:                  10488
                             - Spherical basis functions:                   9610

  Maximum angular momentum of- Orbital basis functions:                        2
                             - Local part of the GTH pseudopotential:          2
                             - Non-local part of the GTH pseudopotential:      4


 MODULE QUICKSTEP:  ATOMIC COORDINATES IN angstrom

 Atom  Kind  Element       X           Y           Z          Z(eff)       Mass
    1   1 O    8       9.170000    6.330000   12.030001       6.0000     15.9994
    2   2 H    1       8.650001    7.130001   11.740000       1.0000      1.0079
    3   2 H    1       8.640000    5.550000   11.850000       1.0000      1.0079
    4   1 O    8      12.920000    3.290000   16.840002       6.0000     15.9994
    5   2 H    1      12.740001    4.090000   16.270000       1.0000      1.0079
    6   2 H    1      12.310000    2.550000   16.560001       1.0000      1.0079
    7   1 O    8       8.200001    2.610000   21.110001       6.0000     15.9994
    8   2 H    1       7.470000    2.000000   21.260002       1.0000      1.0079
    9   2 H    1       8.280001    3.300000   21.809999       1.0000      1.0079
   10   1 O    8       1.090000    4.700000   29.800003       6.0000     15.9994
   11   2 H    1       2.030000    5.080000   29.850002       1.0000      1.0079
   12   2 H    1       0.640000    5.040000   30.640001       1.0000      1.0079
   13   1 O    8      13.690001    2.730000   24.810001       6.0000     15.9994
   14   2 H    1      12.950001    2.420000   24.270000       1.0000      1.0079
   15   2 H    1      14.560001    2.540000   24.380001       1.0000      1.0079
   16   1 O    8      -3.360000   13.330001   11.560000       6.0000     15.9994
   17   2 H    1      -3.740000   13.340001   10.650001       1.0000      1.0079
   18   2 H    1      -3.300000   12.340001   11.640000       1.0000      1.0079
   19   1 O    8       2.200000   10.330000    9.830000       6.0000     15.9994
   20   2 H    1       2.900000   10.110001    9.200000       1.0000      1.0079
   21   2 H    1       1.880000   11.200000    9.530001       1.0000      1.0079
   22   1 O    8       3.110000   14.170000   21.290001       6.0000     15.9994
   23   2 H    1       2.600000   13.700001   22.010002       1.0000      1.0079
   24   2 H    1      10.890001    0.070000   20.790001       1.0000      1.0079
   25   1 O    8       1.540000    1.000000   19.710001       6.0000     15.9994
   26   2 H    1       0.500000    1.140000   19.740002       1.0000      1.0079
   27   2 H    1       1.670000    0.010000   19.670002       1.0000      1.0079
   28   1 O    8      12.200001    5.010000   29.790001       6.0000     15.9994
   29   2 H    1      11.560000    4.860000   30.470001       1.0000      1.0079
   30   2 H    1      11.800001    5.810000   29.260002       1.0000      1.0079
   31   1 O    8       6.080000    6.020000   11.550001       6.0000     15.9994
   32   2 H    1       5.340000    5.880000   12.130001       1.0000      1.0079
   33   2 H    1       6.480000    6.940000   11.690001       1.0000      1.0079
   34   1 O    8       8.640000    9.860001   26.049999       6.0000     15.9994
   35   2 H    1       8.050001    9.920000   25.290001       1.0000      1.0079
   36   2 H    1       8.690001    8.910000   26.150000       1.0000      1.0079
   37   1 O    8      12.250000    5.610001   15.610001       6.0000     15.9994
   38   2 H    1      12.810000    5.360000   14.840001       1.0000      1.0079
   39   2 H    1      12.960000    6.320000   16.060001       1.0000      1.0079
   40   1 O    8       8.330001   11.560000    8.690001       6.0000     15.9994
   41   2 H    1       9.400001   11.490001    8.850000       1.0000      1.0079
   42   2 H    1       8.060000   12.510000    8.810000       1.0000      1.0079
   43   1 O    8      12.370001    5.110001   26.170002       6.0000     15.9994
   44   2 H    1      12.750001    5.810000   26.730001       1.0000      1.0079
   45   2 H    1      13.110001    4.770000   25.640001       1.0000      1.0079
   46   1 O    8      -0.350000    4.150000   27.580002       6.0000     15.9994
   47   2 H    1       0.090000    3.540000   26.840000       1.0000      1.0079
   48   2 H    1       0.370000    4.320000   28.300001       1.0000      1.0079
   49   1 O    8      -1.110000   12.750001   22.250002       6.0000     15.9994
   50   2 H    1      -1.870000   13.230000   22.620001       1.0000      1.0079
   51   2 H    1      -1.400000   11.770000   22.150002       1.0000      1.0079
   52   1 O    8       5.080000    3.900000   28.560001       6.0000     15.9994
   53   2 H    1       5.220000    3.810000   27.550001       1.0000      1.0079
   54   2 H    1       5.190001    3.070000   29.110003       1.0000      1.0079
   55   1 O    8      -4.020000    8.830000   27.880001       6.0000     15.9994
   56   2 H    1      -3.520000    8.480000   28.690002       1.0000      1.0079
   57   2 H    1      -3.990000    9.810000   28.000002       1.0000      1.0079
   58   1 O    8       8.420001    9.540001   30.970001       6.0000     15.9994
   59   2 H    1       8.570001    9.950001   30.050001       1.0000      1.0079
   60   2 H    1       9.310000    9.150001   31.140001       1.0000      1.0079
   61   1 O    8      -6.870000   13.260001   25.790003       6.0000     15.9994
   62   2 H    1      -6.910000   12.380000   25.480001       1.0000      1.0079
   63   2 H    1       9.010000   13.430000   25.940001       1.0000      1.0079
   64   1 O    8      -1.010000    2.080000    9.800000       6.0000     15.9994
   65   2 H    1      -0.700000    2.630000    9.020000       1.0000      1.0079
   66   2 H    1      14.880000    1.800000    9.560000       1.0000      1.0079
   67   1 O    8      13.310001    0.170000   14.090000       6.0000     15.9994
   68   2 H    1       4.260000   14.380001   14.740001       1.0000      1.0079
   69   2 H    1      12.690001    0.430000   13.360001       1.0000      1.0079
   70   1 O    8      -3.050000   11.060000   17.580002       6.0000     15.9994
   71   2 H    1      -2.140000   11.420001   17.720001       1.0000      1.0079
   72   2 H    1      -2.810000   10.500001   16.720001       1.0000      1.0079
   73   1 O    8       1.900000    7.360001   21.270000       6.0000     15.9994
   74   2 H    1       2.190000    6.500000   21.680002       1.0000      1.0079
   75   2 H    1       1.320000    7.770000   21.970001       1.0000      1.0079
   76   1 O    8      -6.100000   12.750001   32.020000       6.0000     15.9994
   77   2 H    1      -6.060000   12.730000   30.990002       1.0000      1.0079
   78   2 H    1      -6.460000   13.710001   32.280003       1.0000      1.0079
   79   1 O    8       2.700000    3.100000   16.049999       6.0000     15.9994
   80   2 H    1       1.770000    3.230000   16.470001       1.0000      1.0079
   81   2 H    1       2.630000    3.310000   15.100001       1.0000      1.0079
   82   1 O    8       9.340000    8.840000   14.800000       6.0000     15.9994
   83   2 H    1       8.610001    9.160001   14.220000       1.0000      1.0079
   84   2 H    1       9.490001    7.900000   14.510001       1.0000      1.0079
   85   1 O    8      -0.860000    9.830000   13.470001       6.0000     15.9994
   86   2 H    1       0.030000   10.320001   13.460001       1.0000      1.0079
   87   2 H    1      -0.650000    8.900001   13.230000       1.0000      1.0079
   88   1 O    8      15.600000    1.420000   14.390000       6.0000     15.9994
   89   2 H    1      -0.890000    2.010000   13.660001       1.0000      1.0079
   90   2 H    1      14.750000    1.020000   14.050001       1.0000      1.0079
   91   1 O    8       4.580000    1.650000   32.660004       6.0000     15.9994
   92   2 H    1       5.340000    1.940000   33.270000       1.0000      1.0079
   93   2 H    1       4.350000    0.760000   33.080002       1.0000      1.0079
   94   1 O    8       7.610001    8.240001   11.380000       6.0000     15.9994
   95   2 H    1       7.450001    8.460000   10.410000       1.0000      1.0079
   96   2 H    1       7.340000    9.040001   11.870001       1.0000      1.0079
   97   1 O    8       2.630000    0.580000   15.350000       6.0000     15.9994
   98   2 H    1       2.610000    1.560000   15.610001       1.0000      1.0079
   99   2 H    1       3.330000    0.130000   15.820000       1.0000      1.0079
  100   1 O    8       1.230000    0.550000   32.380001       6.0000     15.9994
  101   2 H    1       1.320000    1.310000   31.700001       1.0000      1.0079
  102   2 H    1       1.290000    0.970000   33.300003       1.0000      1.0079
  103   1 O    8      15.800000    1.420000   19.650002       6.0000     15.9994
  104   2 H    1      15.720000    1.630000   18.690001       1.0000      1.0079
  105   2 H    1      -1.120000    2.290000   20.130001       1.0000      1.0079
  106   1 O    8       0.040000    7.190001   12.950001       6.0000     15.9994
  107   2 H    1       0.830000    6.880000   12.470001       1.0000      1.0079
  108   2 H    1      -0.570000    6.570000   12.380000       1.0000      1.0079
  109   1 O    8      12.940001    1.790000    9.560000       6.0000     15.9994
  110   2 H    1      12.200001    1.340000   10.140000       1.0000      1.0079
  111   2 H    1      12.830001    1.520000    8.640000       1.0000      1.0079
  112   1 O    8       4.960000    4.670000   14.090000       6.0000     15.9994
  113   2 H    1       5.510000    5.450000   14.310001       1.0000      1.0079
  114   2 H    1       4.040000    4.950000   14.250001       1.0000      1.0079
  115   1 O    8       0.880000   12.810000    9.360001       6.0000     15.9994
  116   2 H    1       0.780000   13.490001   10.070001       1.0000      1.0079
  117   2 H    1      -0.030000   12.640000    8.950001       1.0000      1.0079
  118   1 O    8       2.110000    7.170000   26.170002       6.0000     15.9994
  119   2 H    1       1.250000    6.830000   26.470001       1.0000      1.0079
  120   2 H    1       1.850000    7.990000   25.640001       1.0000      1.0079
  121   1 O    8       0.750000    4.810000   19.300001       6.0000     15.9994
  122   2 H    1       1.550000    5.100000   19.670002       1.0000      1.0079
  123   2 H    1       0.780000    4.350000   18.390001       1.0000      1.0079
  124   1 O    8       3.130000    0.690000   28.800001       6.0000     15.9994
  125   2 H    1      -5.470000   14.390000   29.020002       1.0000      1.0079
  126   2 H    1       2.360000    1.190000   29.210003       1.0000      1.0079
  127   1 O    8       7.480001    0.060000   15.340000       6.0000     15.9994
  128   2 H    1       6.740000    0.590000   15.720000       1.0000      1.0079
  129   2 H    1      -1.240000   14.600000   14.330001       1.0000      1.0079
  130   1 O    8       2.830000    4.970000   22.369999       6.0000     15.9994
  131   2 H    1       2.480000    4.780000   23.290001       1.0000      1.0079
  132   2 H    1       2.830000    4.210001   21.670000       1.0000      1.0079
  133   1 O    8       2.560000    8.180000   29.230001       6.0000     15.9994
  134   2 H    1       3.080000    7.290000   29.310001       1.0000      1.0079
  135   2 H    1       1.630000    7.980001   29.010000       1.0000      1.0079
  136   1 O    8       8.360001    6.890000   25.800001       6.0000     15.9994
  137   2 H    1       9.150001    6.720000   25.230000       1.0000      1.0079
  138   2 H    1       7.550001    6.580000   25.400002       1.0000      1.0079
  139   1 O    8       6.340000    8.550000   28.460003       6.0000     15.9994
  140   2 H    1       6.220000    9.370001   29.000000       1.0000      1.0079
  141   2 H    1       7.060000    8.000000   28.920002       1.0000      1.0079
  142   1 O    8       4.530000    9.890000    8.560000       6.0000     15.9994
  143   2 H    1       5.480001    9.520000    8.460000       1.0000      1.0079
  144   2 H    1       4.540000   10.170001    7.560000       1.0000      1.0079
  145   1 O    8      -5.220000   10.480001   14.580001       6.0000     15.9994
  146   2 H    1      10.940001    9.820001   14.430000       1.0000      1.0079
  147   2 H    1      -5.610001   11.330000   14.170000       1.0000      1.0079
  148   1 O    8      -3.980000    7.090001   20.160000       6.0000     15.9994
  149   2 H    1      -4.120000    8.070001   20.260000       1.0000      1.0079
  150   2 H    1      -3.190000    7.040000   19.550001       1.0000      1.0079
  151   1 O    8       3.050000   10.390000   12.410001       6.0000     15.9994
  152   2 H    1       3.730000   11.090001   12.360001       1.0000      1.0079
  153   2 H    1       2.560000   10.320001   11.520000       1.0000      1.0079
  154   1 O    8      13.320000    0.490000   33.090004       6.0000     15.9994
  155   2 H    1      14.260001    0.110000   33.240002       1.0000      1.0079
  156   2 H    1      13.510000    1.430000   32.800003       1.0000      1.0079
  157   1 O    8       8.190001    6.690001   28.570002       6.0000     15.9994
  158   2 H    1       8.230000    5.810000   29.030001       1.0000      1.0079
  159   2 H    1       7.890000    6.590000   27.570002       1.0000      1.0079
  160   1 O    8       3.660000    4.630000   18.120001       6.0000     15.9994
  161   2 H    1       4.410000    5.240001   18.400000       1.0000      1.0079
  162   2 H    1       3.620000    4.560000   17.140001       1.0000      1.0079
  163   1 O    8      10.110001    1.250000   19.870001       6.0000     15.9994
  164   2 H    1       9.430000    1.930000   20.090000       1.0000      1.0079
  165   2 H    1      10.290001    1.260000   18.880001       1.0000      1.0079
  166   1 O    8       4.860000   12.840000    9.500000       6.0000     15.9994
  167   2 H    1       5.760000   13.110001    9.310000       1.0000      1.0079
  168   2 H    1       4.910000   11.900001    9.270000       1.0000      1.0079
  169   1 O    8      -5.970000   10.740000   24.190002       6.0000     15.9994
  170   2 H    1      10.800000    9.820001   24.510002       1.0000      1.0079
  171   2 H    1      10.650001   10.680000   23.210001       1.0000      1.0079
  172   1 O    8      10.200001    3.200000   26.540001       6.0000     15.9994
  173   2 H    1       9.990001    3.110000   27.490002       1.0000      1.0079
  174   2 H    1      11.070000    3.710000   26.580002       1.0000      1.0079
  175   1 O    8       8.450001    2.910000   33.290001       6.0000     15.9994
  176   2 H    1       7.960001    3.620000   32.800003       1.0000      1.0079
  177   2 H    1       8.150001    2.000000   33.060001       1.0000      1.0079
  178   1 O    8      -1.950000   10.360001   22.290001       6.0000     15.9994
  179   2 H    1      -2.690000   10.310000   21.639999       1.0000      1.0079
  180   2 H    1      -2.370000   10.690001   23.130001       1.0000      1.0079
  181   1 O    8       9.220000    7.720000   22.240002       6.0000     15.9994
  182   2 H    1       9.210001    6.970000   21.550003       1.0000      1.0079
  183   2 H    1       9.780001    7.280001   22.959999       1.0000      1.0079
  184   1 O    8       6.680000    8.910000   22.290001       6.0000     15.9994
  185   2 H    1       7.210000    8.090000   22.540001       1.0000      1.0079
  186   2 H    1       5.920000    8.490001   21.880001       1.0000      1.0079
  187   1 O    8      -2.820000    9.500000   15.370001       6.0000     15.9994
  188   2 H    1      -2.040000    9.730001   14.840001       1.0000      1.0079
  189   2 H    1      -3.630000    9.600000   14.780001       1.0000      1.0079
  190   1 O    8       7.550001   11.050000   20.810001       6.0000     15.9994
  191   2 H    1       6.880000   11.790000   20.790001       1.0000      1.0079
  192   2 H    1       7.270000   10.210000   21.220001       1.0000      1.0079
  193   1 O    8      10.730000    8.270000   31.440001       6.0000     15.9994
  194   2 H    1      10.170001    7.530000   31.840002       1.0000      1.0079
  195   2 H    1      11.250000    7.840000   30.730001       1.0000      1.0079
  196   1 O    8      -0.010000    5.810000   32.200005       6.0000     15.9994
  197   2 H    1      -0.980000    5.910000   32.120003       1.0000      1.0079
  198   2 H    1       0.420000    6.740000   32.120003       1.0000      1.0079
  199   1 O    8       2.590000    7.180000   15.630001       6.0000     15.9994
  200   2 H    1       1.680000    6.820001   15.680000       1.0000      1.0079
  201   2 H    1       2.490000    7.810000   16.390001       1.0000      1.0079
  202   1 O    8       2.990000   10.780001   23.080002       6.0000     15.9994
  203   2 H    1       2.460000   11.600000   22.900002       1.0000      1.0079
  204   2 H    1       3.800000   11.000000   23.570002       1.0000      1.0079
  205   1 O    8       7.290000    0.370000    9.150001       6.0000     15.9994
  206   2 H    1      -1.440000   14.360001    8.490001       1.0000      1.0079
  207   2 H    1       6.730001    0.140000    9.860001       1.0000      1.0079
  208   1 O    8      10.630001    2.800000   13.360001       6.0000     15.9994
  209   2 H    1      10.150002    2.300000   14.040001       1.0000      1.0079
  210   2 H    1       9.960001    3.150000   12.680000       1.0000      1.0079
  211   1 O    8       5.630000    1.580000   20.650002       6.0000     15.9994
  212   2 H    1       5.510000    1.000000   21.500000       1.0000      1.0079
  213   2 H    1       4.850000    2.160000   20.680000       1.0000      1.0079
  214   1 O    8       5.570001    1.580000   16.580002       6.0000     15.9994
  215   2 H    1       4.920000    1.060000   17.250000       1.0000      1.0079
  216   2 H    1       5.140000    2.320000   16.110001       1.0000      1.0079
  217   1 O    8       2.790000   14.220000   30.830002       6.0000     15.9994
  218   2 H    1       3.670000   14.120001   30.250000       1.0000      1.0079
  219   2 H    1       2.080000   13.770000   30.260002       1.0000      1.0079
  220   1 O    8       2.700000    6.380000   12.040001       6.0000     15.9994
  221   2 H    1       2.680000    5.540000   12.520000       1.0000      1.0079
  222   2 H    1       3.060000    7.150001   12.690001       1.0000      1.0079
  223   1 O    8      -2.840000    6.460000   32.480003       6.0000     15.9994
  224   2 H    1      13.260001    5.820000   32.300003       1.0000      1.0079
  225   2 H    1      -2.900000    6.560000   33.430000       1.0000      1.0079
  226   1 O    8      -7.740001   13.900002   11.330000       6.0000     15.9994
  227   2 H    1      -7.010000   14.350000   11.820001       1.0000      1.0079
  228   2 H    1       9.210001   12.980001   11.800001       1.0000      1.0079
  229   1 O    8       5.470000   12.750001   24.620001       6.0000     15.9994
  230   2 H    1       4.850000   13.220000   25.200003       1.0000      1.0079
  231   2 H    1       5.560000   11.790000   24.840002       1.0000      1.0079
  232   1 O    8       9.530001    6.200000   32.540001       6.0000     15.9994
  233   2 H    1      10.310000    5.680000   32.880001       1.0000      1.0079
  234   2 H    1       9.140000    6.720000   33.279999       1.0000      1.0079
  235   1 O    8       3.760000    9.350000   21.090002       6.0000     15.9994
  236   2 H    1       3.110000    8.620001   21.049999       1.0000      1.0079
  237   2 H    1       3.390000   10.010000   21.709999       1.0000      1.0079
  238   1 O    8      16.130001    0.280000   28.680000       6.0000     15.9994
  239   2 H    1       7.860000   14.240000   27.980001       1.0000      1.0079
  240   2 H    1      15.450001    0.870000   28.270000       1.0000      1.0079
  241   1 O    8      11.600000    0.920000   11.610001       6.0000     15.9994
  242   2 H    1      11.200000    1.540000   12.350000       1.0000      1.0079
  243   2 H    1      10.870000    0.260000   11.410000       1.0000      1.0079
  244   1 O    8      11.460000    3.870000   19.120001       6.0000     15.9994
  245   2 H    1      11.250000    2.920000   19.410002       1.0000      1.0079
  246   2 H    1      12.120000    3.650000   18.390001       1.0000      1.0079
  247   1 O    8       4.340000    0.790000   18.580000       6.0000     15.9994
  248   2 H    1       3.420000    1.180000   18.890001       1.0000      1.0079
  249   2 H    1       4.880000    1.250000   19.360001       1.0000      1.0079
  250   1 O    8       6.750000   13.580000   22.400000       6.0000     15.9994
  251   2 H    1       6.030001   13.660001   21.670000       1.0000      1.0079
  252   2 H    1       6.150000   13.190001   23.180000       1.0000      1.0079
  253   1 O    8      -6.620001   14.420000    8.960000       6.0000     15.9994
  254   2 H    1      -7.060000   14.110001    9.840000       1.0000      1.0079
  255   2 H    1      -7.220001   14.220000    8.190001       1.0000      1.0079
  256   1 O    8       8.520000    3.540000   11.440001       6.0000     15.9994
  257   2 H    1       7.670000    3.300000   11.860001       1.0000      1.0079
  258   2 H    1       8.700001    3.170000   10.570001       1.0000      1.0079
  259   1 O    8      -3.930000   11.510000   28.330002       6.0000     15.9994
  260   2 H    1      -3.410000   11.810001   27.540001       1.0000      1.0079
  261   2 H    1      -3.250000   11.750001   29.160002       1.0000      1.0079
  262   1 O    8       5.670000    6.090000   19.290001       6.0000     15.9994
  263   2 H    1       6.590000    5.690000   19.270000       1.0000      1.0079
  264   2 H    1       5.780000    6.850000   18.630001       1.0000      1.0079
  265   1 O    8       0.590000    0.070000   22.290001       6.0000     15.9994
  266   2 H    1       0.890000    0.290000   21.360001       1.0000      1.0079
  267   2 H    1       8.140000   14.230001   22.220001       1.0000      1.0079
  268   1 O    8      -3.370000   13.090000   32.480003       6.0000     15.9994
  269   2 H    1      -3.240000   12.620001   33.330002       1.0000      1.0079
  270   2 H    1      -4.380000   13.000001   32.360001       1.0000      1.0079
  271   1 O    8       5.990000   10.380001   15.030001       6.0000     15.9994
  272   2 H    1       6.590000   10.900001   15.600000       1.0000      1.0079
  273   2 H    1       5.900001    9.520000   15.450001       1.0000      1.0079
  274   1 O    8      11.400002    1.910000   23.200001       6.0000     15.9994
  275   2 H    1      11.790000    1.270000   22.610001       1.0000      1.0079
  276   2 H    1      11.310000    2.810000   22.770002       1.0000      1.0079
  277   1 O    8      13.680000    5.380001   21.980001       6.0000     15.9994
  278   2 H    1      -3.500000    6.080000   21.250000       1.0000      1.0079
  279   2 H    1      12.810000    5.000000   22.280003       1.0000      1.0079
  280   1 O    8      10.920000    4.310000   21.970001       6.0000     15.9994
  281   2 H    1      10.250001    4.930000   22.350002       1.0000      1.0079
  282   2 H    1      10.990001    4.290000   20.970001       1.0000      1.0079
  283   1 O    8       6.910000    0.210000   12.820001       6.0000     15.9994
  284   2 H    1      -2.260000   14.340000   12.380000       1.0000      1.0079
  285   2 H    1       6.920000    1.210000   12.680000       1.0000      1.0079
  286   1 O    8      -6.300001   12.470001   29.330002       6.0000     15.9994
  287   2 H    1       9.900001   11.890000   28.900002       1.0000      1.0079
  288   2 H    1      -5.460000   12.030001   29.010000       1.0000      1.0079
  289   1 O    8      10.880001    6.930000   28.170002       6.0000     15.9994
  290   2 H    1      11.130000    7.870001   27.870003       1.0000      1.0079
  291   2 H    1       9.940001    6.700000   28.190002       1.0000      1.0079
  292   1 O    8      -1.640000    5.430000   11.720000       6.0000     15.9994
  293   2 H    1      -1.960000    5.420001   10.780001       1.0000      1.0079
  294   2 H    1      -2.430000    5.100000   12.170000       1.0000      1.0079
  295   1 O    8       3.180000    8.220000   33.440002       6.0000     15.9994
  296   2 H    1       3.770000    9.030001   33.290001       1.0000      1.0079
  297   2 H    1       3.780000    7.430000   33.370003       1.0000      1.0079
  298   1 O    8       7.480001    0.330000   26.060001       6.0000     15.9994
  299   2 H    1       6.730001    0.860000   25.570002       1.0000      1.0079
  300   2 H    1       7.610001    0.570000   27.030001       1.0000      1.0079
  301   1 O    8       9.900001    0.180000   24.880001       6.0000     15.9994
  302   2 H    1      10.150002    1.000000   24.390001       1.0000      1.0079
  303   2 H    1       8.990001    0.240000   25.260000       1.0000      1.0079
  304   1 O    8       8.670000    4.870000    8.350000       6.0000     15.9994
  305   2 H    1       8.930000    3.890000    8.510000       1.0000      1.0079
  306   2 H    1       7.730001    4.800000    8.530001       1.0000      1.0079
  307   1 O    8      -2.080000    9.840000    9.290000       6.0000     15.9994
  308   2 H    1      -1.180000    9.400001    9.270000       1.0000      1.0079
  309   2 H    1      -2.230000   10.080000   10.270000       1.0000      1.0079
  310   1 O    8      -6.110000   13.040000   19.350000       6.0000     15.9994
  311   2 H    1      -5.440001   13.080001   18.610001       1.0000      1.0079
  312   2 H    1      -6.670001   12.210001   19.080002       1.0000      1.0079
  313   1 O    8       5.870000   11.600000   28.990002       6.0000     15.9994
  314   2 H    1       5.790000   12.550001   29.350002       1.0000      1.0079
  315   2 H    1       5.010000   11.170001   29.220001       1.0000      1.0079
  316   1 O    8       4.650001    2.200000    7.910000       6.0000     15.9994
  317   2 H    1       5.110001    3.000000    8.230000       1.0000      1.0079
  318   2 H    1       3.660000    2.420000    8.150001       1.0000      1.0079
  319   1 O    8       1.420000   11.660000   16.380001       6.0000     15.9994
  320   2 H    1       1.600000   10.720000   16.730001       1.0000      1.0079
  321   2 H    1       0.580000   11.940001   16.820000       1.0000      1.0079
  322   1 O    8       1.080000   11.920000   13.370000       6.0000     15.9994
  323   2 H    1       1.040000   12.090001   14.330001       1.0000      1.0079
  324   2 H    1       2.000000   11.390000   13.160001       1.0000      1.0079
  325   1 O    8       7.110000   13.980001   32.950001       6.0000     15.9994
  326   2 H    1       7.940001   14.400001   32.490002       1.0000      1.0079
  327   2 H    1       7.010000   13.030001   32.870003       1.0000      1.0079
  328   1 O    8      -4.970000   12.740001   16.470001       6.0000     15.9994
  329   2 H    1      -5.320000   11.830001   16.270000       1.0000      1.0079
  330   2 H    1      -4.030000   12.580000   16.690001       1.0000      1.0079
  331   1 O    8       3.600000    5.830000   30.120001       6.0000     15.9994
  332   2 H    1       3.850000    5.910000   31.100002       1.0000      1.0079
  333   2 H    1       4.290000    5.250000   29.690001       1.0000      1.0079
  334   1 O    8       4.230000    5.960000   32.830002       6.0000     15.9994
  335   2 H    1       3.780000    5.120000   33.090004       1.0000      1.0079
  336   2 H    1       5.200000    5.870000   32.820000       1.0000      1.0079
  337   1 O    8       8.790001   13.870001   14.800000       6.0000     15.9994
  338   2 H    1      16.710001    0.060000   14.460001       1.0000      1.0079
  339   2 H    1      -7.310000   14.250001   15.250001       1.0000      1.0079
  340   1 O    8       2.850000   14.070001    8.210000       6.0000     15.9994
  341   2 H    1       3.590000   13.470001    8.520000       1.0000      1.0079
  342   2 H    1       2.010000   13.570002    8.490001       1.0000      1.0079
  343   1 O    8       9.950001    6.490001   19.570002       6.0000     15.9994
  344   2 H    1       9.790000    7.280001   19.030001       1.0000      1.0079
  345   2 H    1      10.790000    6.060000   19.370001       1.0000      1.0079
  346   1 O    8      10.620001    6.290000   24.160002       6.0000     15.9994
  347   2 H    1      11.400002    6.800000   24.330002       1.0000      1.0079
  348   2 H    1      10.850000    5.420001   24.600000       1.0000      1.0079
  349   1 O    8       7.020000    6.020000   15.360001       6.0000     15.9994
  350   2 H    1       7.130001    5.200000   15.920001       1.0000      1.0079
  351   2 H    1       7.940001    6.210001   15.130001       1.0000      1.0079
  352   1 O    8       9.150001    1.990000   15.580001       6.0000     15.9994
  353   2 H    1       8.410000    2.530000   16.060001       1.0000      1.0079
  354   2 H    1       8.600000    1.170000   15.270000       1.0000      1.0079
  355   1 O    8       1.510000   11.830001   19.430000       6.0000     15.9994
  356   2 H    1       1.980000   12.070000   18.600002       1.0000      1.0079
  357   2 H    1       0.940000   12.640000   19.620001       1.0000      1.0079
  358   1 O    8       4.100000    8.080000   13.690001       6.0000     15.9994
  359   2 H    1       3.510000    7.870001   14.510001       1.0000      1.0079
  360   2 H    1       4.010000    9.070001   13.470001       1.0000      1.0079
  361   1 O    8       3.160000   12.840000   33.260002       6.0000     15.9994
  362   2 H    1       3.870000   12.130001   33.130001       1.0000      1.0079
  363   2 H    1       3.580000   13.740001   32.980000       1.0000      1.0079
  364   1 O    8       6.800000    5.020000   32.220001       6.0000     15.9994
  365   2 H    1       7.200000    4.840000   31.340000       1.0000      1.0079
  366   2 H    1       7.100000    5.920000   32.510002       1.0000      1.0079
  367   1 O    8       1.930000    9.000000   17.580002       6.0000     15.9994
  368   2 H    1       1.200000    8.840000   18.270000       1.0000      1.0079
  369   2 H    1       2.680000    9.320001   18.130001       1.0000      1.0079
  370   1 O    8       1.060000    9.440001   24.810001       6.0000     15.9994
  371   2 H    1       1.630000   10.110001   24.330002       1.0000      1.0079
  372   2 H    1       0.490000    8.990001   24.160002       1.0000      1.0079
  373   1 O    8       5.670000   10.250001   24.650002       6.0000     15.9994
  374   2 H    1       5.090000    9.630001   25.100002       1.0000      1.0079
  375   2 H    1       5.960000    9.880000   23.810001       1.0000      1.0079
  376   1 O    8      -1.380000    6.790000   18.810001       6.0000     15.9994
  377   2 H    1      -0.710000    6.080000   18.770000       1.0000      1.0079
  378   2 H    1      -0.880000    7.590001   19.139999       1.0000      1.0079
  379   1 O    8       7.150001    7.740001   32.620003       6.0000     15.9994
  380   2 H    1       6.880000    8.230000   33.470001       1.0000      1.0079
  381   2 H    1       7.630000    8.350000   32.020000       1.0000      1.0079
  382   1 O    8      -0.300000    2.960000   12.220000       6.0000     15.9994
  383   2 H    1      -0.450000    2.470000   11.380000       1.0000      1.0079
  384   2 H    1      -0.940000    3.700000   12.110001       1.0000      1.0079
  385   1 O    8      -0.310000    8.100000   22.720001       6.0000     15.9994
  386   2 H    1      -0.860000    8.870000   22.380001       1.0000      1.0079
  387   2 H    1      -0.920000    7.470000   23.240002       1.0000      1.0079
  388   1 O    8      -3.870000    8.040000    8.620001       6.0000     15.9994
  389   2 H    1      -3.210000    8.670000    8.880001       1.0000      1.0079
  390   2 H    1      -3.970000    8.220000    7.580000       1.0000      1.0079
  391   1 O    8       9.290000   11.890000   12.950001       6.0000     15.9994
  392   2 H    1       8.320000   11.610001   12.920000       1.0000      1.0079
  393   2 H    1       9.300001   12.530001   13.710001       1.0000      1.0079
  394   1 O    8       7.570000   14.080001   25.960003       6.0000     15.9994
  395   2 H    1      16.000000    0.290000   25.490000       1.0000      1.0079
  396   2 H    1       6.920000   13.490001   25.440002       1.0000      1.0079
  397   1 O    8      -0.970000   12.780001   17.080000       6.0000     15.9994
  398   2 H    1      -0.860000   13.270000   16.220001       1.0000      1.0079
  399   2 H    1      -0.950000   13.370000   17.790001       1.0000      1.0079
  400   1 O    8      -3.240000    9.980000   32.730003       6.0000     15.9994
  401   2 H    1      -3.810000    9.320001   33.250000       1.0000      1.0079
  402   2 H    1      -2.340000    9.690001   32.930000       1.0000      1.0079
  403   1 O    8       7.350000    9.060000    8.770000       6.0000     15.9994
  404   2 H    1       7.860000    9.900001    8.750001       1.0000      1.0079
  405   2 H    1       7.880001    8.360001    8.280001       1.0000      1.0079
  406   1 O    8       8.040000    4.730000   19.340002       6.0000     15.9994
  407   2 H    1       8.220000    3.960000   19.940001       1.0000      1.0079
  408   2 H    1       8.920000    5.280000   19.480001       1.0000      1.0079
  409   1 O    8      11.600000    6.650000   10.990001       6.0000     15.9994
  410   2 H    1      11.750001    5.980001   10.360001       1.0000      1.0079
  411   2 H    1      10.620001    6.530001   11.320001       1.0000      1.0079
  412   1 O    8      -1.200000    3.730000   21.030003       6.0000     15.9994
  413   2 H    1      -1.860000    4.430000   21.220001       1.0000      1.0079
  414   2 H    1      -0.480000    4.230000   20.570002       1.0000      1.0079
  415   1 O    8      -3.280000   10.870000   24.550001       6.0000     15.9994
  416   2 H    1      -2.830000   11.470001   25.210001       1.0000      1.0079
  417   2 H    1      -4.170000   11.210001   24.330002       1.0000      1.0079
  418   1 O    8       4.930000   12.670001   12.160001       6.0000     15.9994
  419   2 H    1       4.830000   13.020000   11.270000       1.0000      1.0079
  420   2 H    1       5.070000   13.400001   12.830001       1.0000      1.0079
  421   1 O    8      15.300001    2.050000   16.970001       6.0000     15.9994
  422   2 H    1      14.400001    2.430000   16.890001       1.0000      1.0079
  423   2 H    1      15.490000    1.570000   16.070002       1.0000      1.0079
  424   1 O    8       3.630000   13.890000   26.740000       6.0000     15.9994
  425   2 H    1       2.790000   14.000001   26.270000       1.0000      1.0079
  426   2 H    1      12.340001    0.220000   26.980001       1.0000      1.0079
  427   1 O    8       9.250001   10.960001   18.510000       6.0000     15.9994
  428   2 H    1       8.740000   11.500001   17.720001       1.0000      1.0079
  429   2 H    1       8.590000   10.860001   19.260002       1.0000      1.0079
  430   1 O    8      -0.600000    8.540000   28.510000       6.0000     15.9994
  431   2 H    1      -0.710000    7.700000   27.960003       1.0000      1.0079
  432   2 H    1      -1.150000    8.530001   29.350002       1.0000      1.0079
  433   1 O    8       0.230000    3.780000   16.960001       6.0000     15.9994
  434   2 H    1       0.200000    4.630000   16.460001       1.0000      1.0079
  435   2 H    1      -0.590000    3.080000   16.910002       1.0000      1.0079
  436   1 O    8      -3.160000   14.540001   22.620001       6.0000     15.9994
  437   2 H    1      -4.050000   14.180001   22.550001       1.0000      1.0079
  438   2 H    1       5.180000    0.540000   23.400002       1.0000      1.0079
  439   1 O    8       2.110000    3.950000   13.340001       6.0000     15.9994
  440   2 H    1       2.630000    3.480000   12.600001       1.0000      1.0079
  441   2 H    1       1.190000    3.790000   13.070001       1.0000      1.0079
  442   1 O    8      -2.170000    6.590000   24.250002       6.0000     15.9994
  443   2 H    1      -2.980000    7.120000   24.590000       1.0000      1.0079
  444   2 H    1      -2.510000    5.960000   23.440001       1.0000      1.0079
  445   1 O    8      -2.670000    7.140000   16.370001       6.0000     15.9994
  446   2 H    1      -2.180000    7.120000   17.260000       1.0000      1.0079
  447   2 H    1      -2.820000    8.130000   16.120001       1.0000      1.0079
  448   1 O    8      -2.300000    5.430000    8.920000       6.0000     15.9994
  449   2 H    1      -2.770000    6.220000    8.550000       1.0000      1.0079
  450   2 H    1      13.690001    4.970000    9.070001       1.0000      1.0079
  451   1 O    8       3.580000   10.520000   29.770002       6.0000     15.9994
  452   2 H    1       3.130000    9.650001   29.440002       1.0000      1.0079
  453   2 H    1       3.090000   11.250000   29.320002       1.0000      1.0079
  454   1 O    8      13.510000    1.530000   27.160000       6.0000     15.9994
  455   2 H    1      13.560000    2.000000   26.310001       1.0000      1.0079
  456   2 H    1      13.570002    2.210000   27.900002       1.0000      1.0079
  457   1 O    8      10.780001    0.940000   17.280001       6.0000     15.9994
  458   2 H    1      10.130000    1.240000   16.560001       1.0000      1.0079
  459   2 H    1      11.350001    0.290000   16.840002       1.0000      1.0079
  460   1 O    8      14.310001    3.420000   29.370001       6.0000     15.9994
  461   2 H    1      13.570002    4.160000   29.370001       1.0000      1.0079
  462   2 H    1      -1.860000    3.640000   28.610001       1.0000      1.0079
  463   1 O    8       2.580000    4.740000   25.100002       6.0000     15.9994
  464   2 H    1       2.280000    5.650000   25.520000       1.0000      1.0079
  465   2 H    1       1.860000    4.010000   25.120001       1.0000      1.0079
  466   1 O    8       9.050000    2.310000    8.780001       6.0000     15.9994
  467   2 H    1       8.230000    1.690000    8.920000       1.0000      1.0079
  468   2 H    1       9.400001    2.080000    7.900000       1.0000      1.0079
  469   1 O    8       0.070000   10.870000   26.890001       6.0000     15.9994
  470   2 H    1       0.430000   10.410000   26.070002       1.0000      1.0079
  471   2 H    1      -0.190000   10.130000   27.590000       1.0000      1.0079
  472   1 O    8       4.640000    8.340000   26.370001       6.0000     15.9994
  473   2 H    1       5.200000    8.260000   27.180002       1.0000      1.0079
  474   2 H    1       3.710000    8.200001   26.750002       1.0000      1.0079
  475   1 O    8       9.610001    6.160001   14.740001       6.0000     15.9994
  476   2 H    1       9.560000    5.810000   13.860001       1.0000      1.0079
  477   2 H    1      10.480001    6.060000   15.180001       1.0000      1.0079
  478   1 O    8      -5.640000   13.350000   22.540001       6.0000     15.9994
  479   2 H    1      -5.830000   12.930001   21.670000       1.0000      1.0079
  480   2 H    1      -6.490001   13.860001   22.750000       1.0000      1.0079
  481   1 O    8      10.300001   10.420000   21.340000       6.0000     15.9994
  482   2 H    1       9.400001   10.730000   21.180000       1.0000      1.0079
  483   2 H    1      10.150002    9.490001   21.590002       1.0000      1.0079
  484   1 O    8       9.570000    8.450001   17.900002       6.0000     15.9994
  485   2 H    1       9.620001    9.410001   18.180000       1.0000      1.0079
  486   2 H    1      10.060000    8.370000   17.090000       1.0000      1.0079
  487   1 O    8       1.000000   14.040001   11.580001       6.0000     15.9994
  488   2 H    1       1.150000   13.360001   12.310000       1.0000      1.0079
  489   2 H    1       0.150000   14.450001   11.790000       1.0000      1.0079
  490   1 O    8       7.750000   12.090001   16.620001       6.0000     15.9994
  491   2 H    1       6.980000   12.470001   17.140001       1.0000      1.0079
  492   2 H    1       8.130000   12.830001   16.100002       1.0000      1.0079
  493   1 O    8       7.660000    0.660000   28.780001       6.0000     15.9994
  494   2 H    1      -0.680000   14.310001   28.960001       1.0000      1.0079
  495   2 H    1       6.760001    0.990000   29.190002       1.0000      1.0079
  496   1 O    8       7.330000    0.230000   32.700001       6.0000     15.9994
  497   2 H    1      -0.450000   14.170000   32.960003       1.0000      1.0079
  498   2 H    1      -2.000000   14.400001   32.660004       1.0000      1.0079
  499   1 O    8      12.040001    4.300000   32.620003       6.0000     15.9994
  500   2 H    1      11.530000    3.470000   32.270004       1.0000      1.0079
  501   2 H    1      12.080001    4.200000   33.610001       1.0000      1.0079
  502   1 O    8       6.000000    4.840000    8.840000       6.0000     15.9994
  503   2 H    1       6.150000    5.260000    9.670001       1.0000      1.0079
  504   2 H    1       5.490000    5.570001    8.340000       1.0000      1.0079
  505   1 O    8       4.180000    6.940000    8.260000       6.0000     15.9994
[...]
    900      3      Pt         -0.00070931     0.00119515    -0.01578809
    901      3      Pt         -0.00306573    -0.00733694    -0.00499642
    902      3      Pt          0.00830036    -0.01417712    -0.00099803
    903      3      Pt         -0.00600714     0.00123414    -0.01600671
    904      3      Pt         -0.00379803     0.00482072     0.01139501
    905      3      Pt         -0.00417969    -0.00239239     0.01472641
    906      3      Pt          0.00558482     0.00174802    -0.00761620
 SUM OF ATOMIC FORCES          -0.02289963     0.00442034    -0.00920703     0.02507393

 STRESS| Analytical stress tensor [GPa]
 STRESS|                        x                   y                   z
 STRESS|      x       -2.63664642008E+00  -9.16216954746E-02  -2.13047203011E-02
 STRESS|      y       -9.16216954746E-02  -2.71990066170E+00   1.65614125771E-01
 STRESS|      z       -2.13047203011E-02   1.65614125771E-01  -5.24611143136E-01
 STRESS| 1/3 Trace                                            -1.96038607497E+00
 STRESS| Determinant                                          -3.68360193099E+00

 STRESS| Eigenvectors and eigenvalues of the analytical stress tensor [GPa]
 STRESS|                        1                   2                   3
 STRESS| Eigenvalues  -2.78629988438E+00  -2.58304314650E+00  -5.11815194035E-01
 STRESS|      x           0.515276437462      0.856921670518     -0.013245512167
 STRESS|      y           0.855075432585     -0.513001839834      0.075333371862
 STRESS|      z          -0.057759826750      0.050143423521      0.997070428551

 -------------------------------------------------------------------------------
 -                                                                             -
 -                                DBCSR STATISTICS                             -
 -                                                                             -
 -------------------------------------------------------------------------------
 COUNTER                                    TOTAL       BLAS       SMM       ACC
 flops     5 x     5 x   288          88812691200       0.0%    100.0%      0.0%
 flops     5 x     5 x   292          90046200800       0.0%    100.0%      0.0%
 flops     5 x    13 x   288         100029346560       0.0%    100.0%      0.0%
 flops    13 x     5 x   288         100118378880       0.0%    100.0%      0.0%
 flops     5 x    13 x   292         101418643040       0.0%    100.0%      0.0%
 flops    13 x     5 x   292         101508911920       0.0%    100.0%      0.0%
 flops    20 x    13 x   288         102196823040       0.0%    100.0%      0.0%
 flops    13 x    20 x   288         102479270400       0.0%    100.0%      0.0%
 flops    20 x    13 x   292         103616223360       0.0%    100.0%      0.0%
 flops    13 x    20 x   292         103902593600       0.0%    100.0%      0.0%
 flops    13 x    13 x   288         106099508736       0.0%    100.0%      0.0%
 flops    13 x    13 x   292         107573113024       0.0%    100.0%      0.0%
 flops    20 x     5 x   288         111240806400       0.0%    100.0%      0.0%
 flops     5 x    20 x   288         111269145600       0.0%    100.0%      0.0%
 flops    20 x     5 x   292         112785817600       0.0%    100.0%      0.0%
 flops     5 x    20 x   292         112814550400       0.0%    100.0%      0.0%
 flops    20 x    20 x   288         442771660800       0.0%    100.0%      0.0%
 flops    20 x    20 x   292         448921267200       0.0%    100.0%      0.0%
 flops     5 x     5 x   320         592084608000       0.0%    100.0%      0.0%
 flops     5 x    13 x   320         666862310400       0.0%    100.0%      0.0%
 flops    13 x     5 x   320         667455859200       0.0%    100.0%      0.0%
 flops    20 x    13 x   320         681312153600       0.0%    100.0%      0.0%
 flops    13 x    20 x   320         683195136000       0.0%    100.0%      0.0%
 flops    13 x    13 x   320         707330058240       0.0%    100.0%      0.0%
 flops    20 x     5 x   320         741605376000       0.0%    100.0%      0.0%
 flops     5 x    20 x   320         741794304000       0.0%    100.0%      0.0%
 flops    20 x    20 x   320        2951811072000       0.0%    100.0%      0.0%
 flops inhomo. stacks                           0       0.0%      0.0%      0.0%
 flops total                        10.981056E+12       0.0%    100.0%      0.0%
 flops max/rank                    179.067910E+09       0.0%    100.0%      0.0%
 matmuls inhomo. stacks                         0       0.0%      0.0%      0.0%
 matmuls total                          158038272       0.0%    100.0%      0.0%
 number of processed stacks                419840       0.0%    100.0%      0.0%
 average stack size                                     0.0     376.4       0.0
 marketing flops                    31.224226E+12
 -------------------------------------------------------------------------------
 # multiplications                             82
 max memory usage/rank               1.871684E+09
 # max total images/rank                        1
 # max 3D layers                                1
 # MPI messages exchanged                   73472
 MPI messages size (bytes):
  total size                       220.645474E+09
  min size                           2.762496E+06
  max size                           3.077120E+06
  average size                       3.003123E+06
 MPI breakdown and total messages size (bytes):
             size <=      128                   0                        0
       128 < size <=     8192                   0                        0
      8192 < size <=    32768                   0                        0
     32768 < size <=   131072                   0                        0
    131072 < size <=  4194304               73472             220645600000
   4194304 < size <= 16777216                   0                        0
  16777216 < size                               0                        0
 -------------------------------------------------------------------------------
 -                                                                             -
 -                      DBCSR MESSAGE PASSING PERFORMANCE                      -
 -                                                                             -
 -------------------------------------------------------------------------------
 ROUTINE             CALLS      AVE VOLUME [Bytes]
 MP_Bcast               28                     12.
 MP_Allreduce          648                     10.
 MP_Alltoall          2296                1978775.
 MP_ISend             2624                1329597.
 MP_IRecv             2624                1310413.
 -------------------------------------------------------------------------------

 -------------------------------------------------------------------------------
 -                                                                             -
 -                                DBM STATISTICS                               -
 -                                                                             -
 -------------------------------------------------------------------------------
    M  x    N  x    K                                          COUNT     PERCENT
 -------------------------------------------------------------------------------

 -------------------------------------------------------------------------------
 -                                                                             -
 -                                GRID STATISTICS                              -
 -                                                                             -
 -------------------------------------------------------------------------------
 LP    KERNEL             BACKEND                              COUNT     PERCENT
 3     collocate general  REF                               57006400      18.91%
 3     integrate general  REF                               56369184      18.70%
 2     collocate general  REF                               53439728      17.73%
 2     integrate general  REF                               52788024      17.51%
 4     collocate general  REF                               40157532      13.32%
 4     integrate general  REF                               39667806      13.16%
 6     integrate general  REF                                 695200       0.23%
 5     integrate general  REF                                 651704       0.22%
 7     integrate general  REF                                 489726       0.16%
 0     collocate general  REF                                 115968       0.04%
 0     integrate general  REF                                  57984       0.02%
 -------------------------------------------------------------------------------

 MEMORY| Estimated peak process memory [MiB]                                2115

 -------------------------------------------------------------------------------
 ----                             MULTIGRID INFO                            ----
 -------------------------------------------------------------------------------
 count for grid        1:         730549          cutoff [a.u.]          200.00
 count for grid        2:         807422          cutoff [a.u.]           66.67
 count for grid        3:         740844          cutoff [a.u.]           22.22
 count for grid        4:         830986          cutoff [a.u.]            7.41
 total gridlevel count  :        3109801

 -------------------------------------------------------------------------------
 -                                                                             -
 -                         MESSAGE PASSING PERFORMANCE                         -
 -                                                                             -
 -------------------------------------------------------------------------------

 ROUTINE             CALLS      AVE VOLUME [Bytes]
 MP_Group                4
 MP_Bcast              264                2236233.
 MP_Allreduce         1376                   1822.
 MP_Sync                85
 MP_Alltoall          1820               14744227.
 MP_SendRecv           252                  14208.
 MP_ISendRecv        20664                 113680.
 MP_Wait             46228
 MP_ISend            23904                 340012.
 MP_IRecv            23904                 340012.
 MP_Recv               385                2460160.
 MP_Write_All            3                1540656.
 -------------------------------------------------------------------------------


 -------------------------------------------------------------------------------
 -                                                                             -
 -                           R E F E R E N C E S                               -
 -                                                                             -
 -------------------------------------------------------------------------------
 
 CP2K version 2022.1, the CP2K developers group (2022).
 CP2K is freely available from https://www.cp2k.org/ .

 Kuehne,Thomas D.; Iannuzzi,Marcella; Del Ben,Mauro;
 Rybkin,Vladimir V.; Seewald,Patrick; Stein,Frederick; Laino,Teodoro;
 Khaliullin,Rustam Z.; Schuett,Ole; Schiffmann,Florian; Golze,Dorothea;
 Wilhelm,Jan; Chulkov,Sergey; Bani-Hashemian,Mohammad Hossein;
 Weber,Valery; Borstnik,Urban; Taillefumier,Mathieu;
 Jakobovits,Alice Shoshana; Lazzaro,Alfio; Pabst,Hans; Mueller,Tiziano;
 Schade,Robert; Guidon,Manuel; Andermatt,Samuel; Holmberg,Nico;
 Schenter,Gregory K.; Hehn,Anna; Bussy,Augustin; Belleflamme,Fabian;
 Tabacchi,Gloria; Gloess,Andreas; Lass,Michael; Bethune,Iain;
 Mundy,Christopher J.; Plessl,Christian; Watkins,Matt;
 VandeVondele,Joost; Krack,Matthias; Hutter,Juerg. 
 The Journal of Chemical Physics, 152 (19), (2020). 
 CP2K: An electronic structure and molecular dynamics software package -
 Quickstep: Efficient and accurate electronic structure calculations.
 https://doi.org/10.1063/5.0007045

 Goerigk, Lars; Hansen, Andreas; Bauer, Christoph; Ehrlich, Stephan;
 Najibi, Asim; Grimme, Stefan. , 19 (48), (2017). 
 A look at the density functional theory zoo with the advanced GMTKN55 database
 for general main group thermochemistry, kinetics and noncovalent interactions.
 https://doi.org/10.1039/C7CP04913G

 Schuett, Ole; Messmer, Peter; Hutter, Juerg; VandeVondele, Joost. 
 Electronic Structure Calculations on Graphics Processing Units, John
 Wiley & Sons, Ltd, 173-190 (2016). 
 GPU-Accelerated Sparse Matrix-Matrix Multiplication for
 Linear Scaling Density Functional Theory.
 https://doi.org/10.1002/9781118670712.ch8

 Heinecke, A; Henry, G; Hutchinson, M; Pabst, H. 
 Proceedings of Intl. Supercomputing Conference, 981-991 (2016). 
 LIBXSMM: Accelerating Small Matrix Multiplications
 by Runtime Code Generation.
 https://doi.org/10.1109/SC.2016.83

 Borstnik, U; VandeVondele, J; Weber, V; Hutter, J. 
 PARALLEL COMPUTING, 40 (5-6), 47-58 (2014). 
 Sparse matrix multiplication: The distributed block-compressed sparse
 row library.
 https://doi.org/10.1016/j.parco.2014.03.012

 Hutter, J; Iannuzzi, M; Schiffmann, F; VandeVondele, J. 
 WIREs Comput Mol Sci., 4 (1), 15-25 (2014). 
 CP2K: atomistic simulations of condensed matter systems.
 https://doi.org/10.1002/wcms.1159

 Marek, A; Blum, V; Johanni, R; Havu, V; Lang, B; Auckenthaler, T;
 Heinecke, A; Bungartz, H; Lederer, H. 
 Journal of Physics: Condensed Matter, 26 (21), (2014). 
 The ELPA library: scalable parallel eigenvalue solutions for
 electronic structure
 theory and computational science.
 https://doi.org/10.1088/0953-8984/26/21/213201

 Grimme, S; Ehrlich, S; Goerigk, L. 
 JOURNAL OF COMPUTATIONAL CHEMISTRY, 32, 1456 (2011). 
 Effect of the damping function in dispersion corrected density functional theory.
 https://doi.org/10.1002/jcc.21759

 Grimme, S; Antony, J; Ehrlich, S; Krieg, H. 
 JOURNAL OF CHEMICAL PHYSICS, 132 (15), 154104 (2010). 
 A consistent and accurate ab initio parametrization of density
 functional dispersion correction (DFT-D) for the 94 elements H-Pu.
 https://doi.org/10.1063/1.3382344

 VandeVondele, J; Hutter, J. 
 JOURNAL OF CHEMICAL PHYSICS, 127 (11), 114105 (2007). 
 Gaussian basis sets for accurate calculations on molecular systems in
 gas and condensed phases.
 https://doi.org/10.1063/1.2770708

 Krack, M. 
 THEORETICAL CHEMISTRY ACCOUNTS, 114 (1-3), 145-152 (2005). 
 Pseudopotentials for H to Kr optimized for gradient-corrected
 exchange-correlation functionals.
 https://doi.org/10.1007/s00214-005-0655-y

 VandeVondele, J; Krack, M; Mohamed, F; Parrinello, M; Chassaing, T;
 Hutter, J. COMPUTER PHYSICS COMMUNICATIONS, 167 (2), 103-128 (2005). 
 QUICKSTEP: Fast and accurate density functional calculations using a
 mixed Gaussian and plane waves approach.
 https://doi.org/10.1016/j.cpc.2004.12.014

 Frigo, M; Johnson, SG. 
 PROCEEDINGS OF THE IEEE, 93 (2), 216-231 (2005). 
 The design and implementation of FFTW3.
 https://doi.org/10.1109/JPROC.2004.840301

 Hartwigsen, C; Goedecker, S; Hutter, J. 
 PHYSICAL REVIEW B, 58 (7), 3641-3662 (1998). 
 Relativistic separable dual-space Gaussian pseudopotentials from H to Rn.
 https://doi.org/10.1103/PhysRevB.58.3641

 Lippert, G; Hutter, J; Parrinello, M. 
 MOLECULAR PHYSICS, 92 (3), 477-487 (1997). 
 A hybrid Gaussian and plane wave density functional scheme.
 https://doi.org/10.1080/002689797170220

 Perdew, JP; Burke, K; Ernzerhof, M. 
 PHYSICAL REVIEW LETTERS, 77 (18), 3865-3868 (1996). 
 Generalized gradient approximation made simple.
 https://doi.org/10.1103/PhysRevLett.77.3865

 Goedecker, S; Teter, M; Hutter, J. 
 PHYSICAL REVIEW B, 54 (3), 1703-1710 (1996). 
 Separable dual-space Gaussian pseudopotentials.
 https://doi.org/10.1103/PhysRevB.54.1703


 -------------------------------------------------------------------------------
 -                                                                             -
 -                                T I M I N G                                  -
 -                                                                             -
 -------------------------------------------------------------------------------
 SUBROUTINE                       CALLS  ASD         SELF TIME        TOTAL TIME
                                MAXIMUM       AVERAGE  MAXIMUM  AVERAGE  MAXIMUM
 CP2K                                 1  1.0    0.028    0.041  971.139  971.140
 qs_forces                            1  2.0    0.002    0.003  970.737  970.739
 qs_energies                          1  3.0    0.000    0.001  958.249  958.258
 scf_env_do_scf                       1  4.0    0.000    0.000  950.016  950.261
 scf_env_do_scf_inner_loop           81  5.0    0.004    0.012  950.016  950.261
 qs_scf_new_mos                      81  6.0    0.004    0.010  386.650  387.308
 eigensolver                         81  7.0    0.007    0.011  359.398  359.772
 rebuild_ks_matrix                   82  7.0    0.000    0.000  300.090  300.139
 qs_ks_build_kohn_sham_matrix        82  8.0    0.013    0.023  300.089  300.139
 qs_ks_update_qs_env                 81  6.0    0.001    0.001  292.086  292.134
 qs_rho_update_rho_low               82  6.0    0.001    0.001  256.568  256.604
 calculate_rho_elec                  82  7.0    0.192    0.238  256.567  256.604
 sum_up_and_integrate                82  9.0    0.347    0.453  251.842  251.910
 integrate_v_rspace                  82 10.0    0.003    0.006  251.495  251.592
 grid_collocate_task_list            82  8.0  224.874  231.208  224.874  231.208
 grid_integrate_task_list            82 11.0  219.133  225.365  219.133  225.365
 cp_fm_diag_elpa                     81  8.0    0.001    0.001  210.891  211.412
 cp_fm_diag_elpa_base                81  9.0  207.670  208.382  210.559  210.639
 cp_fm_triangular_multiply          243  8.0  145.505  147.278  145.505  147.278
 pw_transfer                       1640 10.9    0.116    0.147   45.609   46.472
 fft_wrap_pw1pw2                   1476 12.0    0.014    0.017   45.095   45.919
 rs_pw_transfer                     660 10.5    0.007    0.009   40.166   45.813
 fft_wrap_pw1pw2_200                984 13.3    4.064    4.372   43.269   44.083
 qs_vxc_create                       82  9.0    0.003    0.003   42.600   42.838
 xc_vxc_pw_create                    82 10.0    0.749    0.777   42.598   42.836
 fft3d_ps                          1476 14.0   16.301   18.308   33.390   34.482
 density_rs2pw                       82  8.0    0.005    0.006   28.937   34.469
 xc_pw_derive                       492 12.0    0.008    0.010   27.177   28.476
 xc_rho_set_and_dset_create          82 11.0    0.398    0.427   22.763   24.915
 potential_pw2rs                     82 11.0    0.031    0.037   23.768   23.846
 mp_waitany                       23904 12.4   17.542   23.685   17.542   23.685
 rs_pw_transfer_RS2PW_200            84 10.0    5.288    5.927   16.257   21.861
 calculate_dm_sparse                 81  7.0    0.025    0.032   19.762   20.560
 cp_dbcsr_plus_fm_fm_t_native        82  8.0    0.004    0.009   19.692   20.557
 xc_pw_divergence                    82 11.0    0.004    0.005   18.451   19.425
 -------------------------------------------------------------------------------

 The number of warnings for this run is : 1
 
 -------------------------------------------------------------------------------
  **** **** ******  **  PROGRAM ENDED AT                 2023-11-26 22:49:50.819
 ***** ** ***  *** **   PROGRAM RAN ON                                     cu054
 **    ****   ******    PROGRAM RAN BY                                     jxzhu
 ***** **    ** ** **   PROGRAM PROCESS ID                                 33900
  **** **  *******  **  PROGRAM STOPPED IN /public/home/jxzhu/tmp_calc/af2075565
                                           805657d94fa4669dad6f4b174b0a4fb/calc/
                                           000000.000/pbc
