 DBCSR| CPU Multiplication driver                                           XSMM
 DBCSR| Multrec recursion limit                                              512
 DBCSR| Multiplication stack size                                           1000
 DBCSR| Maximum elements for images                                    UNLIMITED
 DBCSR| Multiplicative factor virtual images                                   1
 DBCSR| Use multiplication densification                                       T
 DBCSR| Multiplication size stacks                                             3
 DBCSR| Use memory pool for CPU allocation                                     F
 DBCSR| Number of 3D layers                                               SINGLE
 DBCSR| Use MPI memory allocation                                              F
 DBCSR| Use RMA algorithm                                                      F
 DBCSR| Use Communication thread                                               T
 DBCSR| Communication thread load                                             87
 DBCSR| MPI: My node id                                                        0
 DBCSR| MPI: Number of nodes                                                  64
 DBCSR| OMP: Current number of threads                                         1
 DBCSR| OMP: Max number of threads                                             1
 DBCSR| Split modifier for TAS multiplication algorithm                  1.0E+00


  **** **** ******  **  PROGRAM STARTED AT               2024-07-29 22:19:22.792
 ***** ** ***  *** **   PROGRAM STARTED ON                                 cu325
 **    ****   ******    PROGRAM STARTED BY                                 jxzhu
 ***** **    ** ** **   PROGRAM PROCESS ID                                 26138
  **** **  *******  **  PROGRAM STARTED IN /public/home/jxzhu/tmp_calc/9d643e66b
                                           35f886dcfbeec425b872811054e1b1a/calc.
                                           001/task.000.000003

 CP2K| version string:                                       CP2K version 2022.1
 CP2K| source code revision number:                                  git:2caeb6f
 CP2K| cp2kflags: omp libint fftw3 libxc elpa parallel mpi3 scalapack cosma xsmm
 CP2K|             plumed2 spglib mkl sirius libvori libbqb
 CP2K| is freely available from                            https://www.cp2k.org/
 CP2K| Program compiled at                           Mon Jul 3 17:37:06 CST 2023
 CP2K| Program compiled on                                                 mu003
 CP2K| Program compiled for                                                local
 CP2K| Data directory path                             /public/home/jxzhu/basis/
 CP2K| Input file name                                                 input.inp
 
 GLOBAL| Force Environment number                                              1
 GLOBAL| Basis set file name                                        BASIS_MOLOPT
 GLOBAL| Potential file name                                      GTH_POTENTIALS
 GLOBAL| MM Potential file name                                     MM_POTENTIAL
 GLOBAL| Coordinate file name                                          coord.xyz
 GLOBAL| Method name                                                        CP2K
 GLOBAL| Project name                                                       cp2k
 GLOBAL| Run type                                                   ENERGY_FORCE
 GLOBAL| FFT library                                                       FFTW3
 GLOBAL| Diagonalization library                                            ELPA
 GLOBAL| Minimum number of eigenvectors for ELPA usage                        16
 GLOBAL| Orthonormality check for eigenvectors                          DISABLED
 GLOBAL| Matrix multiplication library                                     COSMA
 GLOBAL| All-to-all communication in single precision                          F
 GLOBAL| FFTs using library dependent lengths                                  F
 GLOBAL| Grid backend                                                       AUTO
 GLOBAL| Global print level                                               MEDIUM
 GLOBAL| MPI I/O enabled                                                       T
 GLOBAL| Total number of message passing processes                            64
 GLOBAL| Number of threads for this process                                    1
 GLOBAL| This output is from process                                           0
 GLOBAL| Stack size for threads created by OpenMP (OMP_STACKSIZE)        default
 GLOBAL| CPU model name                 Intel(R) Xeon(R) Gold 6338 CPU @ 2.00GHz
 GLOBAL| CPUID                                                              1003

 MEMORY| system memory details [Kb]
 MEMORY|                        rank 0           min           max       average
 MEMORY| MemTotal            263619172     263619172     263619172     263619172
 MEMORY| MemFree             244148348     244148348     244149588     244148638
 MEMORY| Buffers                  3320          3320          3320          3320
 MEMORY| Cached                1298480       1298480       1298480       1298480
 MEMORY| Slab                   531428        531428        531428        531428
 MEMORY| SReclaimable           168992        168992        168992        168992
 MEMORY| MemLikelyFree       245619140     245619140     245620380     245619430


 *** Fundamental physical constants (SI units) ***

 *** Literature: B. J. Mohr and B. N. Taylor,
 ***             CODATA recommended values of the fundamental physical
 ***             constants: 2006, Web Version 5.1
 ***             http://physics.nist.gov/constants

 Speed of light in vacuum [m/s]                             2.99792458000000E+08
 Magnetic constant or permeability of vacuum [N/A**2]       1.25663706143592E-06
 Electric constant or permittivity of vacuum [F/m]          8.85418781762039E-12
 Planck constant (h) [J*s]                                  6.62606896000000E-34
 Planck constant (h-bar) [J*s]                              1.05457162825177E-34
 Elementary charge [C]                                      1.60217648700000E-19
 Electron mass [kg]                                         9.10938215000000E-31
 Electron g factor [ ]                                     -2.00231930436220E+00
 Proton mass [kg]                                           1.67262163700000E-27
 Fine-structure constant                                    7.29735253760000E-03
 Rydberg constant [1/m]                                     1.09737315685270E+07
 Avogadro constant [1/mol]                                  6.02214179000000E+23
 Boltzmann constant [J/K]                                   1.38065040000000E-23
 Atomic mass unit [kg]                                      1.66053878200000E-27
 Bohr radius [m]                                            5.29177208590000E-11

 *** Conversion factors ***

 [u] -> [a.u.]                                              1.82288848426455E+03
 [Angstrom] -> [Bohr] = [a.u.]                              1.88972613288564E+00
 [a.u.] = [Bohr] -> [Angstrom]                              5.29177208590000E-01
 [a.u.] -> [s]                                              2.41888432650478E-17
 [a.u.] -> [fs]                                             2.41888432650478E-02
 [a.u.] -> [J]                                              4.35974393937059E-18
 [a.u.] -> [N]                                              8.23872205491840E-08
 [a.u.] -> [K]                                              3.15774647902944E+05
 [a.u.] -> [kJ/mol]                                         2.62549961709828E+03
 [a.u.] -> [kcal/mol]                                       6.27509468713739E+02
 [a.u.] -> [Pa]                                             2.94210107994716E+13
 [a.u.] -> [bar]                                            2.94210107994716E+08
 [a.u.] -> [atm]                                            2.90362800883016E+08
 [a.u.] -> [eV]                                             2.72113838565563E+01
 [a.u.] -> [Hz]                                             6.57968392072181E+15
 [a.u.] -> [1/cm] (wave numbers)                            2.19474631370540E+05
 [a.u./Bohr**2] -> [1/cm]                                   5.14048714338585E+03
 

 CELL_TOP| Volume [angstrom^3]:                                      4542.849048
 CELL_TOP| Vector a [angstrom    11.246     0.000     0.000   |a| =    11.245800
 CELL_TOP| Vector b [angstrom     0.000     9.739     0.000   |b| =     9.739200
 CELL_TOP| Vector c [angstrom     0.000     0.000    41.478   |c| =    41.477700
 CELL_TOP| Angle (b,c), alpha [degree]:                                90.000000
 CELL_TOP| Angle (a,c), beta  [degree]:                                90.000000
 CELL_TOP| Angle (a,b), gamma [degree]:                                90.000000
 CELL_TOP| Numerically orthorhombic:                                         YES
 
 GENERATE|  Preliminary Number of Bonds generated:                             0
 GENERATE|  Achieved consistency in connectivity generation.

 CELL| Volume [angstrom^3]:                                          4542.849048
 CELL| Vector a [angstrom]:      11.246     0.000     0.000   |a| =    11.245800
 CELL| Vector b [angstrom]:       0.000     9.739     0.000   |b| =     9.739200
 CELL| Vector c [angstrom]:       0.000     0.000    41.478   |c| =    41.477700
 CELL| Angle (b,c), alpha [degree]:                                    90.000000
 CELL| Angle (a,c), beta  [degree]:                                    90.000000
 CELL| Angle (a,b), gamma [degree]:                                    90.000000
 CELL| Numerically orthorhombic:                                             YES

 CELL_REF| Volume [angstrom^3]:                                      4542.849048
 CELL_REF| Vector a [angstrom    11.246     0.000     0.000   |a| =    11.245800
 CELL_REF| Vector b [angstrom     0.000     9.739     0.000   |b| =     9.739200
 CELL_REF| Vector c [angstrom     0.000     0.000    41.478   |c| =    41.477700
 CELL_REF| Angle (b,c), alpha [degree]:                                90.000000
 CELL_REF| Angle (a,c), beta  [degree]:                                90.000000
 CELL_REF| Angle (a,b), gamma [degree]:                                90.000000
 CELL_REF| Numerically orthorhombic:                                         YES

 *******************************************************************************
 *******************************************************************************
 **                                                                           **
 **     #####                         ##              ##                      **
 **    ##   ##            ##          ##              ##                      **
 **   ##     ##                       ##            ######                    **
 **   ##     ##  ##   ##  ##   #####  ##  ##   ####   ##    #####    #####    **
 **   ##     ##  ##   ##  ##  ##      ## ##   ##      ##   ##   ##  ##   ##   **
 **   ##  ## ##  ##   ##  ##  ##      ####     ###    ##   ######   ######    **
 **    ##  ###   ##   ##  ##  ##      ## ##      ##   ##   ##       ##        **
 **     #######   #####   ##   #####  ##  ##  ####    ##    #####   ##        **
 **           ##                                                    ##        **
 **                                                                           **
 **                                                ... make the atoms dance   **
 **                                                                           **
 **            Copyright (C) by CP2K developers group (2000-2022)             **
 **                      J. Chem. Phys. 152, 194103 (2020)                    **
 **                                                                           **
 *******************************************************************************

 DFT| Spin restricted Kohn-Sham (RKS) calculation                            RKS
 DFT| Multiplicity                                                             1
 DFT| Number of spin states                                                    1
 DFT| Charge                                                                   0
 DFT| Self-interaction correction (SIC)                                       NO
 DFT| Cutoffs: density                                              1.000000E-10
 DFT|          gradient                                             1.000000E-10
 DFT|          tau                                                  1.000000E-10
 DFT|          cutoff_smoothing_range                               0.000000E+00
 DFT| XC density smoothing                                                  NONE
 DFT| XC derivatives                                                          PW

 FUNCTIONAL| PBE:
 FUNCTIONAL| J.P.Perdew, K.Burke, M.Ernzerhof, Phys. Rev. Letter, vol. 77, n 18,
 FUNCTIONAL|  pp. 3865-3868, (1996){spin unpolarized}                           

 vdW POTENTIAL|                                                   Pair Potential
 vdW POTENTIAL|          DFT-D3 (Version 3.1)
 vdW POTENTIAL|          Potential Form: S. Grimme et al, JCP 132: 154104 (2010)
 vdW POTENTIAL|          Zero Damping
 vdW POTENTIAL|          Cutoff Radius [Bohr]:                             20.00
 vdW POTENTIAL|          s6 Scaling Factor:                               1.0000
 vdW POTENTIAL|          sr6 Scaling Factor:                              1.2170
 vdW POTENTIAL|          s8 Scaling Factor:                               0.7220
 vdW POTENTIAL|          Cutoff for CN calculation:                   0.1000E-05

 QS| Method:                                                                 GPW
 QS| Density plane wave grid type                        NON-SPHERICAL FULLSPACE
 QS| Number of grid levels:                                                    4
 QS| Density cutoff [a.u.]:                                                200.0
 QS| Multi grid cutoff [a.u.]: 1) grid level                               200.0
 QS|                           2) grid level                                66.7
 QS|                           3) grid level                                22.2
 QS|                           4) grid level                                 7.4
 QS| Grid level progression factor:                                          3.0
 QS| Relative density cutoff [a.u.]:                                        20.0
 QS| Interaction thresholds: eps_pgf_orb:                                3.2E-07
 QS|                         eps_filter_matrix:                          0.0E+00
 QS|                         eps_core_charge:                            1.0E-15
 QS|                         eps_rho_gspace:                             1.0E-13
 QS|                         eps_rho_rspace:                             1.0E-13
 QS|                         eps_gvg_rspace:                             3.2E-07
 QS|                         eps_ppl:                                    1.0E-02
 QS|                         eps_ppnl:                                   3.2E-09


 ATOMIC KIND INFORMATION

  1. Atomic kind: Pt                                    Number of atoms:      96

     Orbital Basis Set                      DZVP-A5-Q10-323-MOL-T1-DERIVED_SET-1

       Number of orbital shell sets:                                           1
       Number of orbital shells:                                               6
       Number of primitive Cartesian functions:                                5
       Number of Cartesian basis functions:                                   23
       Number of spherical basis functions:                                   20
       Norm type:                                                              2

       Normalised Cartesian orbitals:

                        Set   Shell   Orbital            Exponent    Coefficient

                          1       1    2s                2.521825       0.177473
                                                         1.453920      -0.063399
                                                         0.614053      -0.407089
                                                         0.232656       0.262254
                                                         0.074788       0.047371

                          1       2    3s                2.521825      -0.049056
                                                         1.453920       0.044904
                                                         0.614053      -0.009756
                                                         0.232656      -0.144709
                                                         0.074788       0.144085

                          1       3    3px               2.521825      -0.317572
                                                         1.453920       0.534826
                                                         0.614053      -0.489458
                                                         0.232656       0.245631
                                                         0.074788       0.018221
                          1       3    3py               2.521825      -0.317572
                                                         1.453920       0.534826
                                                         0.614053      -0.489458
                                                         0.232656       0.245631
                                                         0.074788       0.018221
                          1       3    3pz               2.521825      -0.317572
                                                         1.453920       0.534826
                                                         0.614053      -0.489458
                                                         0.232656       0.245631
                                                         0.074788       0.018221

                          1       4    4dx2              2.521825       3.008522
                                                         1.453920      -1.224251
                                                         0.614053       0.225691
                                                         0.232656       0.125144
                                                         0.074788      -0.015348
                          1       4    4dxy              2.521825       5.210912
                                                         1.453920      -2.120465
                                                         0.614053       0.390909
                                                         0.232656       0.216756
                                                         0.074788      -0.026584
                          1       4    4dxz              2.521825       5.210912
                                                         1.453920      -2.120465
                                                         0.614053       0.390909
                                                         0.232656       0.216756
                                                         0.074788      -0.026584
                          1       4    4dy2              2.521825       3.008522
                                                         1.453920      -1.224251
                                                         0.614053       0.225691
                                                         0.232656       0.125144
                                                         0.074788      -0.015348
                          1       4    4dyz              2.521825       5.210912
                                                         1.453920      -2.120465
                                                         0.614053       0.390909
                                                         0.232656       0.216756
                                                         0.074788      -0.026584
                          1       4    4dz2              2.521825       3.008522
                                                         1.453920      -1.224251
                                                         0.614053       0.225691
                                                         0.232656       0.125144
                                                         0.074788      -0.015348

                          1       5    5dx2              2.521825       0.698026
                                                         1.453920      -1.511486
                                                         0.614053      -0.335394
                                                         0.232656      -0.025564
                                                         0.074788      -0.002699
                          1       5    5dxy              2.521825       1.209017
                                                         1.453920      -2.617970
                                                         0.614053      -0.580920
                                                         0.232656      -0.044277
                                                         0.074788      -0.004674
                          1       5    5dxz              2.521825       1.209017
                                                         1.453920      -2.617970
                                                         0.614053      -0.580920
                                                         0.232656      -0.044277
                                                         0.074788      -0.004674
                          1       5    5dy2              2.521825       0.698026
                                                         1.453920      -1.511486
                                                         0.614053      -0.335394
                                                         0.232656      -0.025564
                                                         0.074788      -0.002699
                          1       5    5dyz              2.521825       1.209017
                                                         1.453920      -2.617970
                                                         0.614053      -0.580920
                                                         0.232656      -0.044277
                                                         0.074788      -0.004674
                          1       5    5dz2              2.521825       0.698026
                                                         1.453920      -1.511486
                                                         0.614053      -0.335394
                                                         0.232656      -0.025564
                                                         0.074788      -0.002699

                          1       6    6dx2              2.521825       0.831079
                                                         1.453920      -0.709226
                                                         0.614053      -0.137351
                                                         0.232656       0.068642
                                                         0.074788       0.011745
                          1       6    6dxy              2.521825       1.439472
                                                         1.453920      -1.228415
                                                         0.614053      -0.237899
                                                         0.232656       0.118891
                                                         0.074788       0.020343
                          1       6    6dxz              2.521825       1.439472
                                                         1.453920      -1.228415
                                                         0.614053      -0.237899
                                                         0.232656       0.118891
                                                         0.074788       0.020343
                          1       6    6dy2              2.521825       0.831079
                                                         1.453920      -0.709226
                                                         0.614053      -0.137351
                                                         0.232656       0.068642
                                                         0.074788       0.011745
                          1       6    6dyz              2.521825       1.439472
                                                         1.453920      -1.228415
                                                         0.614053      -0.237899
                                                         0.232656       0.118891
                                                         0.074788       0.020343
                          1       6    6dz2              2.521825       0.831079
                                                         1.453920      -0.709226
                                                         0.614053      -0.137351
                                                         0.232656       0.068642
                                                         0.074788       0.011745

       Atomic covalent radius [Angstrom]:                                  1.300

       Atomic van der Waals radius [Angstrom]:                             1.750

     GTH Potential information for                                   GTH-PBE-q10

       Description:                       Goedecker-Teter-Hutter pseudopotential
                                           Goedecker et al., PRB 54, 1703 (1996)
                                          Hartwigsen et al., PRB 58, 3641 (1998)
                                                      Krack, TCA 114, 145 (2005)

       Gaussian exponent of the core charge distribution:               1.317676
       Electronic configuration (s p d ...):                           1   0   9

       Parameters of the local part of the GTH pseudopotential:

                          rloc        C1          C2          C3          C4
                        0.616000   11.313635

       Parameters of the non-local part of the GTH pseudopotential:

                   l      r(l)      h(i,j,l)

                   0    0.550904    4.733491   -1.784594
                                   -1.784594    2.303901
                   1    0.674138    2.534798   -1.778066
                                   -1.778066    2.103836
                   2    0.457392   -7.264011    2.558665
                                    2.558665   -2.901253

  2. Atomic kind: O                                     Number of atoms:       1

     Orbital Basis Set                                        DZVP-MOLOPT-SR-GTH

       Number of orbital shell sets:                                           1
       Number of orbital shells:                                               5
       Number of primitive Cartesian functions:                                5
       Number of Cartesian basis functions:                                   14
       Number of spherical basis functions:                                   13
       Norm type:                                                              2

       Normalised Cartesian orbitals:

                        Set   Shell   Orbital            Exponent    Coefficient

                          1       1    2s               10.389228       0.396646
                                                         3.849621       0.208811
                                                         1.388401      -0.301641
                                                         0.496955      -0.274061
                                                         0.162492      -0.033677

                          1       2    3s               10.389228       0.303673
                                                         3.849621       0.240943
                                                         1.388401      -0.313066
                                                         0.496955      -0.043055
                                                         0.162492       0.213991

                          1       3    3px              10.389228      -1.530415
                                                         3.849621      -1.371928
                                                         1.388401      -0.761951
                                                         0.496955      -0.253695
                                                         0.162492      -0.035541
                          1       3    3py              10.389228      -1.530415
                                                         3.849621      -1.371928
                                                         1.388401      -0.761951
                                                         0.496955      -0.253695
                                                         0.162492      -0.035541
                          1       3    3pz              10.389228      -1.530415
                                                         3.849621      -1.371928
                                                         1.388401      -0.761951
                                                         0.496955      -0.253695
                                                         0.162492      -0.035541

                          1       4    4px              10.389228      -0.565392
                                                         3.849621      -0.038231
                                                         1.388401      -0.382373
                                                         0.496955       0.179070
                                                         0.162492       0.122714
                          1       4    4py              10.389228      -0.565392
                                                         3.849621      -0.038231
                                                         1.388401      -0.382373
                                                         0.496955       0.179070
                                                         0.162492       0.122714
                          1       4    4pz              10.389228      -0.565392
                                                         3.849621      -0.038231
                                                         1.388401      -0.382373
                                                         0.496955       0.179070
                                                         0.162492       0.122714

                          1       5    4dx2             10.389228       1.867377
                                                         3.849621       0.670994
                                                         1.388401       1.353441
                                                         0.496955       0.273538
                                                         0.162492       0.006620
                          1       5    4dxy             10.389228       3.234392
                                                         3.849621       1.162195
                                                         1.388401       2.344229
                                                         0.496955       0.473781
                                                         0.162492       0.011466
                          1       5    4dxz             10.389228       3.234392
                                                         3.849621       1.162195
                                                         1.388401       2.344229
                                                         0.496955       0.473781
                                                         0.162492       0.011466
                          1       5    4dy2             10.389228       1.867377
                                                         3.849621       0.670994
                                                         1.388401       1.353441
                                                         0.496955       0.273538
                                                         0.162492       0.006620
                          1       5    4dyz             10.389228       3.234392
                                                         3.849621       1.162195
                                                         1.388401       2.344229
                                                         0.496955       0.473781
                                                         0.162492       0.011466
                          1       5    4dz2             10.389228       1.867377
                                                         3.849621       0.670994
                                                         1.388401       1.353441
                                                         0.496955       0.273538
                                                         0.162492       0.006620

       Atomic covalent radius [Angstrom]:                                  0.730

       Atomic van der Waals radius [Angstrom]:                             1.520

     GTH Potential information for                                    GTH-PBE-q6

       Description:                       Goedecker-Teter-Hutter pseudopotential
                                           Goedecker et al., PRB 54, 1703 (1996)
                                          Hartwigsen et al., PRB 58, 3641 (1998)
                                                      Krack, TCA 114, 145 (2005)

       Gaussian exponent of the core charge distribution:               8.360253
       Electronic configuration (s p d ...):                               2   4

       Parameters of the local part of the GTH pseudopotential:

                          rloc        C1          C2          C3          C4
                        0.244554  -16.667215    2.487311

       Parameters of the non-local part of the GTH pseudopotential:

                   l      r(l)      h(i,j,l)

                   0    0.220956   18.337458
                   1    0.211332

  3. Atomic kind: H                                     Number of atoms:       2

     Orbital Basis Set                                        DZVP-MOLOPT-SR-GTH

       Number of orbital shell sets:                                           1
       Number of orbital shells:                                               3
       Number of primitive Cartesian functions:                                5
       Number of Cartesian basis functions:                                    5
       Number of spherical basis functions:                                    5
       Norm type:                                                              2

       Normalised Cartesian orbitals:

                        Set   Shell   Orbital            Exponent    Coefficient

                          1       1    2s               10.068468      -0.133023
                                                         2.680223      -0.177618
                                                         0.791502      -0.258419
                                                         0.239116      -0.107525
                                                         0.082193      -0.014019

                          1       2    3s               10.068468       0.344673
                                                         2.680223       1.819821
                                                         0.791502      -0.999069
                                                         0.239116       0.017430
                                                         0.082193       0.082660

                          1       3    3px              10.068468       0.155326
                                                         2.680223       0.367157
                                                         0.791502       0.311480
                                                         0.239116       0.080105
                                                         0.082193       0.033440
                          1       3    3py              10.068468       0.155326
                                                         2.680223       0.367157
                                                         0.791502       0.311480
                                                         0.239116       0.080105
                                                         0.082193       0.033440
                          1       3    3pz              10.068468       0.155326
                                                         2.680223       0.367157
                                                         0.791502       0.311480
                                                         0.239116       0.080105
                                                         0.082193       0.033440

       Atomic covalent radius [Angstrom]:                                  0.320

       Atomic van der Waals radius [Angstrom]:                             1.090

     GTH Potential information for                                    GTH-PBE-q1

       Description:                       Goedecker-Teter-Hutter pseudopotential
                                           Goedecker et al., PRB 54, 1703 (1996)
                                          Hartwigsen et al., PRB 58, 3641 (1998)
                                                      Krack, TCA 114, 145 (2005)

       Gaussian exponent of the core charge distribution:              12.500000
       Electronic configuration (s p d ...):                                   1

       Parameters of the local part of the GTH pseudopotential:

                          rloc        C1          C2          C3          C4
                        0.200000   -4.178900    0.724463


 MOLECULE KIND INFORMATION


 All atoms are their own molecule, skipping detailed information


 TOTAL NUMBERS AND MAXIMUM NUMBERS

  Total number of            - Atomic kinds:                                   3
                             - Atoms:                                         99
                             - Shell sets:                                    99
                             - Shells:                                       587
                             - Primitive Cartesian functions:                495
                             - Cartesian basis functions:                   2232
                             - Spherical basis functions:                   1943

  Maximum angular momentum of- Orbital basis functions:                        2
                             - Local part of the GTH pseudopotential:          2
                             - Non-local part of the GTH pseudopotential:      4


 MODULE QUICKSTEP:  ATOMIC COORDINATES IN angstrom

 Atom  Kind  Element       X           Y           Z          Z(eff)       Mass
    1   1 Pt  78       1.405728    0.811598   15.000000      10.0000    195.0840
    2   1 Pt  78       4.217185    0.811598   15.000000      10.0000    195.0840
    3   1 Pt  78       7.028641    0.811598   15.000000      10.0000    195.0840
    4   1 Pt  78       9.840098    0.811598   15.000000      10.0000    195.0840
    5   1 Pt  78       0.000000    3.246390   15.000000      10.0000    195.0840
    6   1 Pt  78       2.811457    3.246390   15.000000      10.0000    195.0840
    7   1 Pt  78       5.622913    3.246390   15.000000      10.0000    195.0840
    8   1 Pt  78       8.434370    3.246390   15.000000      10.0000    195.0840
    9   1 Pt  78       1.405728    5.681183   15.000000      10.0000    195.0840
   10   1 Pt  78       4.217185    5.681183   15.000000      10.0000    195.0840
   11   1 Pt  78       7.028641    5.681183   15.000000      10.0000    195.0840
   12   1 Pt  78       9.840098    5.681183   15.000000      10.0000    195.0840
   13   1 Pt  78       0.000000    8.115976   15.000000      10.0000    195.0840
   14   1 Pt  78       2.811457    8.115976   15.000000      10.0000    195.0840
   15   1 Pt  78       5.622913    8.115976   15.000000      10.0000    195.0840
   16   1 Pt  78       8.434370    8.115976   15.000000      10.0000    195.0840
   17   1 Pt  78       0.000000    1.623195   17.295545      10.0000    195.0840
   18   1 Pt  78       2.811457    1.623195   17.295545      10.0000    195.0840
   19   1 Pt  78       5.622913    1.623195   17.295545      10.0000    195.0840
   20   1 Pt  78       8.434370    1.623195   17.295545      10.0000    195.0840
   21   1 Pt  78       1.405728    4.057988   17.295545      10.0000    195.0840
   22   1 Pt  78       4.217185    4.057988   17.295545      10.0000    195.0840
   23   1 Pt  78       7.028641    4.057988   17.295545      10.0000    195.0840
   24   1 Pt  78       9.840098    4.057988   17.295545      10.0000    195.0840
   25   1 Pt  78       0.000000    6.492781   17.295545      10.0000    195.0840
   26   1 Pt  78       2.811457    6.492781   17.295545      10.0000    195.0840
   27   1 Pt  78       5.622913    6.492781   17.295545      10.0000    195.0840
   28   1 Pt  78       8.434370    6.492781   17.295545      10.0000    195.0840
   29   1 Pt  78       1.405728    8.927574   17.295545      10.0000    195.0840
   30   1 Pt  78       4.217185    8.927574   17.295545      10.0000    195.0840
   31   1 Pt  78       7.028641    8.927574   17.295545      10.0000    195.0840
   32   1 Pt  78       9.840098    8.927574   17.295545      10.0000    195.0840
   33   1 Pt  78       0.000000    0.000000   19.591089      10.0000    195.0840
   34   1 Pt  78       2.811457    0.000000   19.591089      10.0000    195.0840
   35   1 Pt  78       5.622913    0.000000   19.591089      10.0000    195.0840
   36   1 Pt  78       8.434370    0.000000   19.591089      10.0000    195.0840
   37   1 Pt  78       1.405728    2.434793   19.591089      10.0000    195.0840
   38   1 Pt  78       4.217185    2.434793   19.591089      10.0000    195.0840
   39   1 Pt  78       7.028641    2.434793   19.591089      10.0000    195.0840
   40   1 Pt  78       9.840098    2.434793   19.591089      10.0000    195.0840
   41   1 Pt  78       0.000000    4.869586   19.591089      10.0000    195.0840
   42   1 Pt  78       2.811457    4.869586   19.591089      10.0000    195.0840
   43   1 Pt  78       5.622913    4.869586   19.591089      10.0000    195.0840
   44   1 Pt  78       8.434370    4.869586   19.591089      10.0000    195.0840
   45   1 Pt  78       1.405728    7.304378   19.591089      10.0000    195.0840
   46   1 Pt  78       4.217185    7.304378   19.591089      10.0000    195.0840
   47   1 Pt  78       7.028641    7.304378   19.591089      10.0000    195.0840
   48   1 Pt  78       9.840098    7.304378   19.591089      10.0000    195.0840
   49   1 Pt  78       1.405728    0.811598   21.886634      10.0000    195.0840
   50   1 Pt  78       4.217185    0.811598   21.886634      10.0000    195.0840
   51   1 Pt  78       7.028641    0.811598   21.886634      10.0000    195.0840
   52   1 Pt  78       9.840098    0.811598   21.886634      10.0000    195.0840
   53   1 Pt  78       0.000000    3.246390   21.886634      10.0000    195.0840
   54   1 Pt  78       2.811457    3.246390   21.886634      10.0000    195.0840
   55   1 Pt  78       5.622913    3.246390   21.886634      10.0000    195.0840
   56   1 Pt  78       8.434370    3.246390   21.886634      10.0000    195.0840
   57   1 Pt  78       1.405728    5.681183   21.886634      10.0000    195.0840
   58   1 Pt  78       4.217185    5.681183   21.886634      10.0000    195.0840
   59   1 Pt  78       7.028641    5.681183   21.886634      10.0000    195.0840
   60   1 Pt  78       9.840098    5.681183   21.886634      10.0000    195.0840
   61   1 Pt  78       0.000000    8.115976   21.886634      10.0000    195.0840
   62   1 Pt  78       2.811457    8.115976   21.886634      10.0000    195.0840
   63   1 Pt  78       5.622913    8.115976   21.886634      10.0000    195.0840
   64   1 Pt  78       8.434370    8.115976   21.886634      10.0000    195.0840
   65   1 Pt  78       0.000000    1.623195   24.182179      10.0000    195.0840
   66   1 Pt  78       2.811457    1.623195   24.182179      10.0000    195.0840
   67   1 Pt  78       5.622913    1.623195   24.182179      10.0000    195.0840
   68   1 Pt  78       8.434370    1.623195   24.182179      10.0000    195.0840
   69   1 Pt  78       1.405728    4.057988   24.182179      10.0000    195.0840
   70   1 Pt  78       4.217185    4.057988   24.182179      10.0000    195.0840
   71   1 Pt  78       7.028641    4.057988   24.182179      10.0000    195.0840
   72   1 Pt  78       9.840098    4.057988   24.182179      10.0000    195.0840
   73   1 Pt  78       0.000000    6.492781   24.182179      10.0000    195.0840
   74   1 Pt  78       2.811457    6.492781   24.182179      10.0000    195.0840
   75   1 Pt  78       5.622913    6.492781   24.182179      10.0000    195.0840
   76   1 Pt  78       8.434370    6.492781   24.182179      10.0000    195.0840
   77   1 Pt  78       1.405728    8.927574   24.182179      10.0000    195.0840
   78   1 Pt  78       4.217185    8.927574   24.182179      10.0000    195.0840
   79   1 Pt  78       7.028641    8.927574   24.182179      10.0000    195.0840
   80   1 Pt  78       9.840098    8.927574   24.182179      10.0000    195.0840
   81   1 Pt  78       0.000000    0.000000   26.477723      10.0000    195.0840
   82   1 Pt  78       2.811457    0.000000   26.477723      10.0000    195.0840
   83   1 Pt  78       5.622913    0.000000   26.477723      10.0000    195.0840
   84   1 Pt  78       8.434370    0.000000   26.477723      10.0000    195.0840
   85   1 Pt  78       1.405728    2.434793   26.477723      10.0000    195.0840
   86   1 Pt  78       4.217185    2.434793   26.477723      10.0000    195.0840
   87   1 Pt  78       7.028641    2.434793   26.477723      10.0000    195.0840
   88   1 Pt  78       9.840098    2.434793   26.477723      10.0000    195.0840
   89   1 Pt  78       0.000000    4.869586   26.477723      10.0000    195.0840
   90   1 Pt  78       2.811457    4.869586   26.477723      10.0000    195.0840
   91   1 Pt  78       5.622913    4.869586   26.477723      10.0000    195.0840
   92   1 Pt  78       8.434370    4.869586   26.477723      10.0000    195.0840
   93   1 Pt  78       1.405728    7.304378   26.477723      10.0000    195.0840
   94   1 Pt  78       4.217185    7.304378   26.477723      10.0000    195.0840
   95   1 Pt  78       7.028641    7.304378   26.477723      10.0000    195.0840
   96   1 Pt  78       9.840098    7.304378   26.477723      10.0000    195.0840
   97   2 O    8       5.622913    4.869586   29.577723       6.0000     15.9994
   98   3 H    1       5.622913    5.809381   29.812038       1.0000      1.0079
   99   3 H    1       5.622913    4.869585   28.609158       1.0000      1.0079




 SCF PARAMETERS         Density guess:                                   RESTART
                        --------------------------------------------------------
                        max_scf:                                             500
                        max_scf_history:                                       0
                        max_diis:                                              4
                        --------------------------------------------------------
                        eps_scf:                                        1.00E-06
                        eps_scf_history:                                0.00E+00
                        eps_diis:                                       1.00E-01
                        eps_eigval:                                     1.00E-05
                        --------------------------------------------------------
                        level_shift [a.u.]:                             0.000000
                        added MOs                                       500    0
                        --------------------------------------------------------
                        Mixing method:                            BROYDEN_MIXING
                                                charge density mixing in g-space
                        --------------------------------------------------------
                        Smear method:                                FERMI_DIRAC
                        Electronic temperature [K]:                        300.0
                        Electronic temperature [a.u.]:                  9.50E-04
                        Accuracy threshold:                             1.00E-10
                        --------------------------------------------------------
                        No outer SCF

 PW_GRID| Information for grid number                                          1
 PW_GRID| Grid distributed over                                    64 processors
 PW_GRID| Real space group dimensions                                    64    1
 PW_GRID| the grid is blocked:                                                NO
 PW_GRID| Cutoff [a.u.]                                                    200.0
 PW_GRID| spherical cutoff:                                                   NO
 PW_GRID|   Bounds   1            -67      67                Points:         135
 PW_GRID|   Bounds   2            -60      59                Points:         120
 PW_GRID|   Bounds   3           -250     249                Points:         500
 PW_GRID| Volume element (a.u.^3)  0.3785E-02     Volume (a.u.^3)     30656.6653
 PW_GRID| Grid span                                                    FULLSPACE
 PW_GRID|   Distribution                         Average         Max         Min
 PW_GRID|   G-Vectors                           126562.5      126630      126495
 PW_GRID|   G-Rays                                 937.5         938         937
 PW_GRID|   Real Space Points                   126562.5      180000      120000

 PW_GRID| Information for grid number                                          2
 PW_GRID| Number of the reference grid                                         1
 PW_GRID| Grid distributed over                                    64 processors
 PW_GRID| Real space group dimensions                                    64    1
 PW_GRID| the grid is blocked:                                                NO
 PW_GRID| Cutoff [a.u.]                                                     66.7
 PW_GRID| spherical cutoff:                                                   NO
 PW_GRID|   Bounds   1            -40      39                Points:          80
 PW_GRID|   Bounds   2            -36      35                Points:          72
 PW_GRID|   Bounds   3           -150     149                Points:         300
 PW_GRID| Volume element (a.u.^3)  0.1774E-01     Volume (a.u.^3)     30656.6653
 PW_GRID| Grid span                                                    FULLSPACE
 PW_GRID|   Distribution                         Average         Max         Min
 PW_GRID|   G-Vectors                            27000.0       27360       26560
 PW_GRID|   G-Rays                                 337.5         342         332
 PW_GRID|   Real Space Points                    27000.0       43200       21600

 PW_GRID| Information for grid number                                          3
 PW_GRID| Number of the reference grid                                         1
 PW_GRID| Grid distributed over                                    64 processors
 PW_GRID| Real space group dimensions                                     8    8
 PW_GRID| the grid is blocked:                                                NO
 PW_GRID| Cutoff [a.u.]                                                     22.2
 PW_GRID| spherical cutoff:                                                   NO
 PW_GRID|   Bounds   1            -22      22                Points:          45
 PW_GRID|   Bounds   2            -20      19                Points:          40
 PW_GRID|   Bounds   3            -90      89                Points:         180
 PW_GRID| Volume element (a.u.^3)  0.9462E-01     Volume (a.u.^3)     30656.6653
 PW_GRID| Grid span                                                    FULLSPACE
 PW_GRID|   Distribution                         Average         Max         Min
 PW_GRID|   G-Vectors                             5062.5        5490        4635
 PW_GRID|   G-Rays                                 112.5         122         103
 PW_GRID|   Real Space Points                     5062.5        5400        4500

 PW_GRID| Information for grid number                                          4
 PW_GRID| Number of the reference grid                                         1
 PW_GRID| Grid distributed over                                    64 processors
 PW_GRID| Real space group dimensions                                     8    8
 PW_GRID| the grid is blocked:                                                NO
 PW_GRID| Cutoff [a.u.]                                                      7.4
 PW_GRID| spherical cutoff:                                                   NO
 PW_GRID|   Bounds   1            -13      13                Points:          27
 PW_GRID|   Bounds   2            -12      11                Points:          24
 PW_GRID|   Bounds   3            -50      49                Points:         100
 PW_GRID| Volume element (a.u.^3)  0.4731         Volume (a.u.^3)     30656.6653
 PW_GRID| Grid span                                                    FULLSPACE
 PW_GRID|   Distribution                         Average         Max         Min
 PW_GRID|   G-Vectors                             1012.5        1269         675
 PW_GRID|   G-Rays                                  37.5          47          25
 PW_GRID|   Real Space Points                     1012.5        1200         900

 POISSON| Solver                                                        PERIODIC
 POISSON| Periodicity                                                        XYZ

 RS_GRID| Information for grid number                                          1
 RS_GRID|   Bounds   1            -67      67                Points:         135
 RS_GRID|   Bounds   2            -60      59                Points:         120
 RS_GRID|   Bounds   3           -250     249                Points:         500
 RS_GRID| Real space distribution over                                 64 groups
 RS_GRID| Real space distribution along direction                              3
 RS_GRID| Border size                                                         34
 RS_GRID|   Distribution                         Average         Max         Min
 RS_GRID|   Planes                                  75.8          76          75

 RS_GRID| Information for grid number                                          2
 RS_GRID|   Bounds   1            -40      39                Points:          80
 RS_GRID|   Bounds   2            -36      35                Points:          72
 RS_GRID|   Bounds   3           -150     149                Points:         300
 RS_GRID| Real space distribution over                                 64 groups
 RS_GRID| Real space distribution along direction                              3
 RS_GRID| Border size                                                         24
 RS_GRID|   Distribution                         Average         Max         Min
 RS_GRID|   Planes                                  52.7          53          52

 RS_GRID| Information for grid number                                          3
 RS_GRID|   Bounds   1            -22      22                Points:          45
 RS_GRID|   Bounds   2            -20      19                Points:          40
 RS_GRID|   Bounds   3            -90      89                Points:         180
 RS_GRID| Real space fully replicated
 RS_GRID| Group size                                                           1

 RS_GRID| Information for grid number                                          4
 RS_GRID|   Bounds   1            -13      13                Points:          27
 RS_GRID|   Bounds   2            -12      11                Points:          24
 RS_GRID|   Bounds   3            -50      49                Points:         100
 RS_GRID| Real space fully replicated
 RS_GRID| Group size                                                           1

 Number of electrons:                                                        968
 Number of occupied orbitals:                                                484
 Number of molecular orbitals:                                               984

 Number of orbital functions:                                               1943
 Number of independent orbital functions:                                   1943

 Extrapolation method: initial_guess

 *** WARNING in qs_initial_guess.F:310 :: User requested to restart the    ***
 *** wavefunction from the file named: cp2k-RESTART.wfn. This file does    ***
 *** not exist. Please check the existence of the file or change properly  ***
 *** the value of the keyword WFN_RESTART_FILE_NAME. Calculation continues ***
 *** using ATOMIC GUESS.                                                   ***


 Atomic guess: The first density matrix is obtained in terms of atomic orbitals
               and electronic configurations assigned to each atomic kind

 Guess for atomic kind: Pt

 Electronic structure
    Total number of core electrons                                         68.00
    Total number of valence electrons                                      10.00
    Total number of electrons                                              78.00
    Multiplicity                                                   not specified
    S   [  2.00  2.00  2.00  2.00  2.00] 1.00
    P   [  6.00  6.00  6.00  6.00]
    D   [ 10.00 10.00] 9.00
    F   [ 14.00]
 

 *******************************************************************************
                  Iteration          Convergence                     Energy [au]
 *******************************************************************************
                          1         2.31440                     -25.408827593796
                          2         1.51653                     -25.553485547781
                          3        0.756718E-01                 -25.848084769772
                          4        0.846688E-02                 -25.848827784449
                          5        0.789087E-04                 -25.848836001288
                          6        0.389389E-04                 -25.848836001863
                          7        0.125194E-06                 -25.848836002049

 Energy components [Hartree]           Total Energy ::          -25.848836002049
                                        Band Energy ::           -2.040347634070
                                     Kinetic Energy ::           20.020057968093
                                   Potential Energy ::          -45.868893970142
                                      Virial (-V/T) ::            2.291146910925
                                        Core Energy ::          -46.706460602493
                                          XC Energy ::           -4.268953034213
                                     Coulomb Energy ::           25.126577634658
                       Total Pseudopotential Energy ::          -66.819945130261
                       Local Pseudopotential Energy ::          -50.953816608059
                    Nonlocal Pseudopotential Energy ::          -15.866128522202
                                        Confinement ::            0.934265596747

 Orbital energies  State     L     Occupation   Energy[a.u.]          Energy[eV]

                       1     0          1.000      -0.180914           -4.922914
 
                       1     2          9.000      -0.206604           -5.621974
 

 Total Electron Density at R=0:                                         0.000036

 Guess for atomic kind: O

 Electronic structure
    Total number of core electrons                                          2.00
    Total number of valence electrons                                       6.00
    Total number of electrons                                               8.00
    Multiplicity                                                   not specified
    S   [  2.00] 2.00
    P      4.00
 

 *******************************************************************************
                  Iteration          Convergence                     Energy [au]
 *******************************************************************************
                          1        0.702811                     -15.577904332270
                          2        0.612408                     -15.588447180504
                          3        0.955344E-02                 -15.655871208406
                          4        0.223754E-02                 -15.655885053552
                          5        0.157183E-02                 -15.655885461027
                          6        0.124953E-02                 -15.655885607150
                          7        0.312011E-06                 -15.655885858066

 Energy components [Hartree]           Total Energy ::          -15.655885858066
                                        Band Energy ::           -2.983128125584
                                     Kinetic Energy ::           11.754765134683
                                   Potential Energy ::          -27.410650992750
                                      Virial (-V/T) ::            2.331875684345
                                        Core Energy ::          -26.153522949072
                                          XC Energy ::           -3.157392363346
                                     Coulomb Energy ::           13.655029454351
                       Total Pseudopotential Energy ::          -37.943026860963
                       Local Pseudopotential Energy ::          -39.220419683052
                    Nonlocal Pseudopotential Energy ::            1.277392822089
                                        Confinement ::            0.347387772086

 Orbital energies  State     L     Occupation   Energy[a.u.]          Energy[eV]

                       1     0          2.000      -0.861522          -23.443215
 
                       1     1          4.000      -0.315021           -8.572154
 

 Total Electron Density at R=0:                                         0.000093

 Guess for atomic kind: H

 Electronic structure
    Total number of core electrons                                          0.00
    Total number of valence electrons                                       1.00
    Total number of electrons                                               1.00
    Multiplicity                                                   not specified
    S      1.00
 

 *******************************************************************************
                  Iteration          Convergence                     Energy [au]
 *******************************************************************************
                          1        0.250972E-02                  -0.375256815885
                          2        0.570752E-04                  -0.375258666164
                          3        0.832405E-09                  -0.375258667122

 Energy components [Hartree]           Total Energy ::           -0.375258667122
                                        Band Energy ::           -0.076317618391
                                     Kinetic Energy ::            0.771356566341
                                   Potential Energy ::           -1.146615233463
                                      Virial (-V/T) ::            1.486491829455
                                        Core Energy ::           -0.456090715790
                                          XC Energy ::           -0.314218627334
                                     Coulomb Energy ::            0.395050676003
                       Total Pseudopotential Energy ::           -1.238482237174
                       Local Pseudopotential Energy ::           -1.238482237174
                    Nonlocal Pseudopotential Energy ::            0.000000000000
                                        Confinement ::            0.110349550431

 Orbital energies  State     L     Occupation   Energy[a.u.]          Energy[eV]

                       1     0          1.000      -0.076318           -2.076708
 

 Total Electron Density at R=0:                                         0.425022
 Re-scaling the density matrix to get the right number of electrons
                  # Electrons              Trace(P)               Scaling factor
                          968               968.001                        1.000


 SCF WAVEFUNCTION OPTIMIZATION

  Step     Update method      Time    Convergence         Total energy    Change
  ------------------------------------------------------------------------------
     1 NoMix/Diag. 0.30E+00    0.8     0.69058141     -2533.5493666254 -2.53E+03
     2 Broy./Diag. 0.30E+00    1.1     0.25436115     -2610.0291916407 -7.65E+01
     3 Broy./Diag. 0.30E+00    1.1     0.27011687     -2580.4955523846  2.95E+01
     4 Broy./Diag. 0.30E+00    1.1     0.21896764     -2570.3201380923  1.02E+01
     5 Broy./Diag. 0.30E+00    1.1     0.25752635     -2550.2118587481  2.01E+01
     6 Broy./Diag. 0.30E+00    1.1     0.11228141     -2544.4094554206  5.80E+00
     7 Broy./Diag. 0.30E+00    1.1     0.03054689     -2541.0892041262  3.32E+00
     8 Broy./Diag. 0.30E+00    1.4     0.02390514     -2539.6412739171  1.45E+00
     9 Broy./Diag. 0.30E+00    1.1     0.02022706     -2538.1713232219  1.47E+00
    10 Broy./Diag. 0.30E+00    1.1     0.01019185     -2537.6744121824  4.97E-01
    11 Broy./Diag. 0.30E+00    1.1     0.00837505     -2537.8874201150 -2.13E-01
    12 Broy./Diag. 0.30E+00    1.1     0.00536419     -2538.0395256763 -1.52E-01
    13 Broy./Diag. 0.30E+00    1.1     0.00347715     -2538.1638103955 -1.24E-01
    14 Broy./Diag. 0.30E+00    1.1     0.00322780     -2538.1895352906 -2.57E-02
    15 Broy./Diag. 0.30E+00    1.1     0.00348466     -2538.1622494524  2.73E-02
    16 Broy./Diag. 0.30E+00    1.1     0.00449264     -2538.0526202979  1.10E-01
    17 Broy./Diag. 0.30E+00    1.1     0.00386601     -2538.0545155814 -1.90E-03
    18 Broy./Diag. 0.30E+00    1.1     0.00240265     -2537.9810074753  7.35E-02
    19 Broy./Diag. 0.30E+00    1.1     0.00142419     -2537.9753117039  5.70E-03
    20 Broy./Diag. 0.30E+00    1.1     0.00099948     -2538.0160742639 -4.08E-02
    21 Broy./Diag. 0.30E+00    1.1     0.00071857     -2538.0494240733 -3.33E-02
    22 Broy./Diag. 0.30E+00    1.1     0.00044764     -2538.0828859528 -3.35E-02
    23 Broy./Diag. 0.30E+00    1.1     0.00051054     -2538.0971976676 -1.43E-02
    24 Broy./Diag. 0.30E+00    1.1     0.00053283     -2538.0940502964  3.15E-03
    25 Broy./Diag. 0.30E+00    1.1     0.00053447     -2538.0802117157  1.38E-02
    26 Broy./Diag. 0.30E+00    1.1     0.00033347     -2538.0636650195  1.65E-02
    27 Broy./Diag. 0.30E+00    1.1     0.00026531     -2538.0534286765  1.02E-02
    28 Broy./Diag. 0.30E+00    1.1     0.00057087     -2538.0479695484  5.46E-03
    29 Broy./Diag. 0.30E+00    1.1     0.00057902     -2538.0510172952 -3.05E-03
    30 Broy./Diag. 0.30E+00    1.1     0.00022783     -2538.0540916511 -3.07E-03
    31 Broy./Diag. 0.30E+00    1.1     0.00015043     -2538.0565730819 -2.48E-03
    32 Broy./Diag. 0.30E+00    1.2     0.00012126     -2538.0629794604 -6.41E-03
    33 Broy./Diag. 0.30E+00    1.1     0.00013008     -2538.0644786791 -1.50E-03
    34 Broy./Diag. 0.30E+00    1.1     0.00007227     -2538.0658890246 -1.41E-03
    35 Broy./Diag. 0.30E+00    1.1     0.00012260     -2538.0624549008  3.43E-03
    36 Broy./Diag. 0.30E+00    1.1     0.00006598     -2538.0597809738  2.67E-03
    37 Broy./Diag. 0.30E+00    1.1     0.00006673     -2538.0580093937  1.77E-03
    38 Broy./Diag. 0.30E+00    1.1     0.00004508     -2538.0571204340  8.89E-04
    39 Broy./Diag. 0.30E+00    1.1     0.00003712     -2538.0572713105 -1.51E-04
    40 Broy./Diag. 0.30E+00    1.1     0.00006114     -2538.0584568066 -1.19E-03
    41 Broy./Diag. 0.30E+00    1.1     0.00005430     -2538.0597269314 -1.27E-03
    42 Broy./Diag. 0.30E+00    1.1     0.00002399     -2538.0602628570 -5.36E-04
    43 Broy./Diag. 0.30E+00    1.1     0.00002006     -2538.0605813269 -3.18E-04
    44 Broy./Diag. 0.30E+00    1.1     0.00000845     -2538.0607106675 -1.29E-04
    45 Broy./Diag. 0.30E+00    1.1     0.00001077     -2538.0602737896  4.37E-04
    46 Broy./Diag. 0.30E+00    1.1     0.00001068     -2538.0600821050  1.92E-04
    47 Broy./Diag. 0.30E+00    1.1     0.00001472     -2538.0598205826  2.62E-04
    48 Broy./Diag. 0.30E+00    1.1     0.00001058     -2538.0596647729  1.56E-04
    49 Broy./Diag. 0.30E+00    1.1     0.00000905     -2538.0598136065 -1.49E-04
    50 Broy./Diag. 0.30E+00    1.1     0.00000645     -2538.0600159590 -2.02E-04
    51 Broy./Diag. 0.30E+00    1.1     0.00000405     -2538.0601627217 -1.47E-04
    52 Broy./Diag. 0.30E+00    1.1     0.00000202     -2538.0601963366 -3.36E-05
    53 Broy./Diag. 0.30E+00    1.1     0.00000402     -2538.0602108279 -1.45E-05
    54 Broy./Diag. 0.30E+00    1.1     0.00000329     -2538.0602107863  4.16E-08
    55 Broy./Diag. 0.30E+00    1.1     0.00000273     -2538.0601282554  8.25E-05
    56 Broy./Diag. 0.30E+00    1.1     0.00000305     -2538.0600754463  5.28E-05
    57 Broy./Diag. 0.30E+00    1.1     0.00000238     -2538.0600707342  4.71E-06
    58 Broy./Diag. 0.30E+00    1.1     0.00000162     -2538.0600570901  1.36E-05
    59 Broy./Diag. 0.30E+00    1.1     0.00000140     -2538.0600506386  6.45E-06
    60 Broy./Diag. 0.30E+00    1.1     0.00000114     -2538.0600615083 -1.09E-05
    61 Broy./Diag. 0.30E+00    1.1     0.00000088     -2538.0600846801 -2.32E-05

  *** SCF run converged in    61 steps ***


  Electronic density on regular grids:       -968.0000000022       -0.0000000022
  Core density on regular grids:              967.9999999998       -0.0000000002
  Total charge density on r-space grids:       -0.0000000025
  Total charge density g-space grids:          -0.0000000025

  Overlap energy of the core charge distribution:               0.00001067614457
  Self energy of the core charge distribution:              -4440.62962420003350
  Core Hamiltonian energy:                                   1439.94004262908038
  Hartree energy:                                             901.48786414542599
  Exchange-correlation energy:                               -436.70794573773298
  Dispersion energy:                                           -2.11801421132607
  Electronic entropic energy:                                  -0.03241799911386
  Fermi energy:                                                 0.00085682341185

  Total energy:                                             -2538.06008468008167

 The electron density is written in cube file format to the file:

 cp2k-ELECTRON_DENSITY-1_0.cube

 !-----------------------------------------------------------------------------!
                     Mulliken Population Analysis

 #  Atom  Element  Kind  Atomic population                           Net charge
       1     Pt       1         10.054224                             -0.054224
       2     Pt       1         10.054352                             -0.054352
       3     Pt       1         10.054352                             -0.054352
       4     Pt       1         10.054221                             -0.054221
       5     Pt       1         10.054284                             -0.054284
       6     Pt       1         10.054308                             -0.054308
       7     Pt       1         10.054330                             -0.054330
       8     Pt       1         10.054307                             -0.054307
       9     Pt       1         10.054302                             -0.054302
      10     Pt       1         10.054220                             -0.054220
      11     Pt       1         10.054219                             -0.054219
      12     Pt       1         10.054299                             -0.054299
      13     Pt       1         10.054391                             -0.054391
      14     Pt       1         10.054185                             -0.054185
      15     Pt       1         10.054344                             -0.054344
      16     Pt       1         10.054183                             -0.054183
      17     Pt       1          9.972157                              0.027843
      18     Pt       1          9.971929                              0.028071
      19     Pt       1          9.971971                              0.028029
      20     Pt       1          9.971927                              0.028073
      21     Pt       1          9.971904                              0.028096
      22     Pt       1          9.972063                              0.027937
      23     Pt       1          9.972063                              0.027937
      24     Pt       1          9.971899                              0.028101
      25     Pt       1          9.972047                              0.027953
      26     Pt       1          9.971975                              0.028025
      27     Pt       1          9.972140                              0.027860
      28     Pt       1          9.971973                              0.028027
      29     Pt       1          9.972013                              0.027987
      30     Pt       1          9.971996                              0.028004
      31     Pt       1          9.971996                              0.028004
      32     Pt       1          9.972009                              0.027991
      33     Pt       1          9.973533                              0.026467
      34     Pt       1          9.973499                              0.026501
      35     Pt       1          9.973372                              0.026628
      36     Pt       1          9.973498                              0.026502
      37     Pt       1          9.973435                              0.026565
      38     Pt       1          9.973465                              0.026535
      39     Pt       1          9.973465                              0.026535
      40     Pt       1          9.973430                              0.026570
      41     Pt       1          9.973615                              0.026385
      42     Pt       1          9.973612                              0.026388
      43     Pt       1          9.973564                              0.026436
      44     Pt       1          9.973611                              0.026389
      45     Pt       1          9.973311                              0.026689
      46     Pt       1          9.973543                              0.026457
      47     Pt       1          9.973543                              0.026457
      48     Pt       1          9.973306                              0.026694
      49     Pt       1          9.973225                              0.026775
      50     Pt       1          9.973592                              0.026408
      51     Pt       1          9.973592                              0.026408
      52     Pt       1          9.973220                              0.026780
      53     Pt       1          9.973203                              0.026797
      54     Pt       1          9.974262                              0.025738
      55     Pt       1          9.973552                              0.026448
      56     Pt       1          9.974261                              0.025739
      57     Pt       1          9.973546                              0.026454
      58     Pt       1          9.973626                              0.026374
      59     Pt       1          9.973626                              0.026374
      60     Pt       1          9.973541                              0.026459
      61     Pt       1          9.973492                              0.026508
      62     Pt       1          9.973418                              0.026582
      63     Pt       1          9.974641                              0.025359
      64     Pt       1          9.973417                              0.026583
      65     Pt       1          9.972488                              0.027512
      66     Pt       1          9.972560                              0.027440
      67     Pt       1          9.972417                              0.027583
      68     Pt       1          9.972558                              0.027442
      69     Pt       1          9.972470                              0.027530
      70     Pt       1          9.970722                              0.029278
      71     Pt       1          9.970722                              0.029278
      72     Pt       1          9.972466                              0.027534
      73     Pt       1          9.972190                              0.027810
      74     Pt       1          9.972710                              0.027290
      75     Pt       1          9.971326                              0.028674
      76     Pt       1          9.972707                              0.027293
      77     Pt       1          9.972159                              0.027841
      78     Pt       1          9.972157                              0.027843
      79     Pt       1          9.972157                              0.027843
      80     Pt       1          9.972154                              0.027846
      81     Pt       1         10.052554                             -0.052554
      82     Pt       1         10.052492                             -0.052492
      83     Pt       1         10.055948                             -0.055948
      84     Pt       1         10.052491                             -0.052491
      85     Pt       1         10.051445                             -0.051445
      86     Pt       1         10.037015                             -0.037015
      87     Pt       1         10.037015                             -0.037015
      88     Pt       1         10.051443                             -0.051443
      89     Pt       1         10.051552                             -0.051552
      90     Pt       1         10.036891                             -0.036891
      91     Pt       1         10.113618                             -0.113618
      92     Pt       1         10.036890                             -0.036890
      93     Pt       1         10.053519                             -0.053519
      94     Pt       1         10.051704                             -0.051704
      95     Pt       1         10.051703                             -0.051703
      96     Pt       1         10.053516                             -0.053516
      97     O        2          6.234137                             -0.234137
      98     H        3          0.875691                              0.124309
      99     H        3          0.921813                              0.078187
 # Total charge                            968.000000                  0.000000

 !-----------------------------------------------------------------------------!

 !-----------------------------------------------------------------------------!
                           Hirshfeld Charges

  #Atom  Element  Kind  Ref Charge     Population                    Net charge
      1       Pt     1      10.000         10.014                        -0.014
      2       Pt     1      10.000         10.015                        -0.015
[...]
 flops     5 x     4 x     5                 4800       0.0%    100.0%      0.0%
 flops     5 x     4 x    13                 6240       0.0%    100.0%      0.0%
 flops    13 x     4 x     5                 6240       0.0%    100.0%      0.0%
 flops    13 x     4 x    13                 8112       0.0%    100.0%      0.0%
 flops     5 x    32 x     5               576000       0.0%    100.0%      0.0%
 flops     5 x    32 x    13               748800       0.0%    100.0%      0.0%
 flops    13 x    32 x     5               748800       0.0%    100.0%      0.0%
 flops     5 x    13 x    96               773760       0.0%    100.0%      0.0%
 flops    13 x     5 x    96               773760       0.0%    100.0%      0.0%
 flops    20 x     4 x     5               849600       0.0%    100.0%      0.0%
 flops     5 x     4 x    20               849600       0.0%    100.0%      0.0%
 flops     5 x     5 x    96               892800       0.0%    100.0%      0.0%
 flops    20 x     4 x    13               948480       0.0%    100.0%      0.0%
 flops    13 x     4 x    20               948480       0.0%    100.0%      0.0%
 flops     5 x    13 x   120               967200       0.0%    100.0%      0.0%
 flops    13 x     5 x   120               967200       0.0%    100.0%      0.0%
 flops    13 x    32 x    13               973440       0.0%    100.0%      0.0%
 flops     5 x     5 x   120              1116000       0.0%    100.0%      0.0%
 flops    13 x    13 x    96              2011776       0.0%    100.0%      0.0%
 flops    13 x    13 x   120              2514720       0.0%    100.0%      0.0%
 flops     5 x    13 x   128              6190080       0.0%    100.0%      0.0%
 flops    13 x     5 x   128              6190080       0.0%    100.0%      0.0%
 flops     5 x     5 x   128              7142400       0.0%    100.0%      0.0%
 flops    13 x    13 x   128             16094208       0.0%    100.0%      0.0%
 flops    20 x    32 x     5            101952000       0.0%    100.0%      0.0%
 flops     5 x    32 x    20            101952000       0.0%    100.0%      0.0%
 flops    20 x     5 x    96            104755200       0.0%    100.0%      0.0%
 flops     5 x    20 x    96            105945600       0.0%    100.0%      0.0%
 flops    20 x    32 x    13            113817600       0.0%    100.0%      0.0%
 flops    13 x    32 x    20            113817600       0.0%    100.0%      0.0%
 flops    20 x    13 x    96            114516480       0.0%    100.0%      0.0%
 flops    13 x    20 x    96            120706560       0.0%    100.0%      0.0%
 flops    20 x     5 x   120            130944000       0.0%    100.0%      0.0%
 flops     5 x    20 x   120            132432000       0.0%    100.0%      0.0%
 flops    20 x    13 x   120            143145600       0.0%    100.0%      0.0%
 flops    13 x    20 x   120            150883200       0.0%    100.0%      0.0%
 flops    20 x     4 x    20            176947200       0.0%    100.0%      0.0%
 flops    20 x     5 x   128            838041600       0.0%    100.0%      0.0%
 flops     5 x    20 x   128            847564800       0.0%    100.0%      0.0%
 flops    20 x    13 x   128            916131840       0.0%    100.0%      0.0%
 flops    13 x    20 x   128            965652480       0.0%    100.0%      0.0%
 flops    20 x    32 x    20          21233664000       0.0%    100.0%      0.0%
 flops    20 x    20 x    96          22170009600       0.0%    100.0%      0.0%
 flops    20 x    20 x   120          27712512000       0.0%    100.0%      0.0%
 flops    20 x    20 x   128         177360076800       0.0%    100.0%      0.0%
 flops inhomo. stacks                           0       0.0%      0.0%      0.0%
 flops total                       253.707771E+09       0.0%    100.0%      0.0%
 flops max/rank                      4.517824E+09       0.0%    100.0%      0.0%
 matmuls inhomo. stacks                         0       0.0%      0.0%      0.0%
 matmuls total                            3372016       0.0%    100.0%      0.0%
 number of processed stacks                 65062       0.0%    100.0%      0.0%
 average stack size                                     0.0      51.8       0.0
 marketing flops                   264.463647E+09
 -------------------------------------------------------------------------------
 # multiplications                             68
 max memory usage/rank               1.109271E+09
 # max total images/rank                        1
 # max 3D layers                                1
 # MPI messages exchanged                   60928
 MPI messages size (bytes):
  total size                        14.856276E+09
  min size                          69.120000E+03
  max size                         503.752000E+03
  average size                     243.833312E+03
 MPI breakdown and total messages size (bytes):
             size <=      128                   0                        0
       128 < size <=     8192                   0                        0
      8192 < size <=    32768                   0                        0
     32768 < size <=   131072                2688                315978432
    131072 < size <=  4194304               58240              14540298192
   4194304 < size <= 16777216                   0                        0
  16777216 < size                               0                        0
 -------------------------------------------------------------------------------
 -                                                                             -
 -                      DBCSR MESSAGE PASSING PERFORMANCE                      -
 -                                                                             -
 -------------------------------------------------------------------------------
 ROUTINE             CALLS      AVE VOLUME [Bytes]
 MP_Bcast               46                     12.
 MP_Allreduce          562                     11.
 MP_Alltoall          1862                 144208.
 MP_ISend             2176                 108836.
 MP_IRecv             2176                 105335.
 -------------------------------------------------------------------------------

 -------------------------------------------------------------------------------
 -                                                                             -
 -                                DBM STATISTICS                               -
 -                                                                             -
 -------------------------------------------------------------------------------
    M  x    N  x    K                                          COUNT     PERCENT
 -------------------------------------------------------------------------------

 -------------------------------------------------------------------------------
 -                                                                             -
 -                                GRID STATISTICS                              -
 -                                                                             -
 -------------------------------------------------------------------------------
 LP    KERNEL             BACKEND                              COUNT     PERCENT
 4     collocate ortho    REF                                9671380      49.00%
 4     integrate ortho    REF                                9518269      48.22%
 3     collocate ortho    REF                                 178498       0.90%
 3     integrate ortho    REF                                 175727       0.89%
 5     integrate ortho    REF                                 155990       0.79%
 0     collocate general  REF                                  12672       0.06%
 2     collocate ortho    REF                                   6696       0.03%
 2     integrate ortho    REF                                   6588       0.03%
 0     integrate general  REF                                   6336       0.03%
 1     integrate general  REF                                   6336       0.03%
 -------------------------------------------------------------------------------

 MEMORY| Estimated peak process memory [MiB]                                1216

 -------------------------------------------------------------------------------
 ----                             MULTIGRID INFO                            ----
 -------------------------------------------------------------------------------
 count for grid        1:         504266          cutoff [a.u.]          200.00
 count for grid        2:         489533          cutoff [a.u.]           66.67
 count for grid        3:         275059          cutoff [a.u.]           22.22
 count for grid        4:         162967          cutoff [a.u.]            7.41
 total gridlevel count  :        1431825

 -------------------------------------------------------------------------------
 -                                                                             -
 -                         MESSAGE PASSING PERFORMANCE                         -
 -                                                                             -
 -------------------------------------------------------------------------------

 ROUTINE             CALLS      AVE VOLUME [Bytes]
 MP_Group                4
 MP_Bcast             2439                 230776.
 MP_Allreduce         5116                   2570.
 MP_Sync               127
 MP_Alltoall          1505                4535677.
 MP_SendRecv        215208                 105286.
 MP_ISendRecv        15624                  26400.
 MP_Wait             36156
 MP_comm_split          61
 MP_ISend            18896                  83629.
 MP_IRecv            18896                  83629.
 MP_Recv               150                 497408.
 MP_Write_All            3                 592560.
 -------------------------------------------------------------------------------


 -------------------------------------------------------------------------------
 -                                                                             -
 -                           R E F E R E N C E S                               -
 -                                                                             -
 -------------------------------------------------------------------------------
 
 CP2K version 2022.1, the CP2K developers group (2022).
 CP2K is freely available from https://www.cp2k.org/ .

 Kuehne,Thomas D.; Iannuzzi,Marcella; Del Ben,Mauro;
 Rybkin,Vladimir V.; Seewald,Patrick; Stein,Frederick; Laino,Teodoro;
 Khaliullin,Rustam Z.; Schuett,Ole; Schiffmann,Florian; Golze,Dorothea;
 Wilhelm,Jan; Chulkov,Sergey; Bani-Hashemian,Mohammad Hossein;
 Weber,Valery; Borstnik,Urban; Taillefumier,Mathieu;
 Jakobovits,Alice Shoshana; Lazzaro,Alfio; Pabst,Hans; Mueller,Tiziano;
 Schade,Robert; Guidon,Manuel; Andermatt,Samuel; Holmberg,Nico;
 Schenter,Gregory K.; Hehn,Anna; Bussy,Augustin; Belleflamme,Fabian;
 Tabacchi,Gloria; Gloess,Andreas; Lass,Michael; Bethune,Iain;
 Mundy,Christopher J.; Plessl,Christian; Watkins,Matt;
 VandeVondele,Joost; Krack,Matthias; Hutter,Juerg. 
 The Journal of Chemical Physics, 152 (19), (2020). 
 CP2K: An electronic structure and molecular dynamics software package -
 Quickstep: Efficient and accurate electronic structure calculations.
 https://doi.org/10.1063/5.0007045

 Goerigk, Lars; Hansen, Andreas; Bauer, Christoph; Ehrlich, Stephan;
 Najibi, Asim; Grimme, Stefan. , 19 (48), (2017). 
 A look at the density functional theory zoo with the advanced GMTKN55 database
 for general main group thermochemistry, kinetics and noncovalent interactions.
 https://doi.org/10.1039/C7CP04913G

 Schuett, Ole; Messmer, Peter; Hutter, Juerg; VandeVondele, Joost. 
 Electronic Structure Calculations on Graphics Processing Units, John
 Wiley & Sons, Ltd, 173-190 (2016). 
 GPU-Accelerated Sparse Matrix-Matrix Multiplication for
 Linear Scaling Density Functional Theory.
 https://doi.org/10.1002/9781118670712.ch8

 Heinecke, A; Henry, G; Hutchinson, M; Pabst, H. 
 Proceedings of Intl. Supercomputing Conference, 981-991 (2016). 
 LIBXSMM: Accelerating Small Matrix Multiplications
 by Runtime Code Generation.
 https://doi.org/10.1109/SC.2016.83

 Borstnik, U; VandeVondele, J; Weber, V; Hutter, J. 
 PARALLEL COMPUTING, 40 (5-6), 47-58 (2014). 
 Sparse matrix multiplication: The distributed block-compressed sparse
 row library.
 https://doi.org/10.1016/j.parco.2014.03.012

 Hutter, J; Iannuzzi, M; Schiffmann, F; VandeVondele, J. 
 WIREs Comput Mol Sci., 4 (1), 15-25 (2014). 
 CP2K: atomistic simulations of condensed matter systems.
 https://doi.org/10.1002/wcms.1159

 Marek, A; Blum, V; Johanni, R; Havu, V; Lang, B; Auckenthaler, T;
 Heinecke, A; Bungartz, H; Lederer, H. 
 Journal of Physics: Condensed Matter, 26 (21), (2014). 
 The ELPA library: scalable parallel eigenvalue solutions for
 electronic structure
 theory and computational science.
 https://doi.org/10.1088/0953-8984/26/21/213201

 Grimme, S; Ehrlich, S; Goerigk, L. 
 JOURNAL OF COMPUTATIONAL CHEMISTRY, 32, 1456 (2011). 
 Effect of the damping function in dispersion corrected density functional theory.
 https://doi.org/10.1002/jcc.21759

 Grimme, S; Antony, J; Ehrlich, S; Krieg, H. 
 JOURNAL OF CHEMICAL PHYSICS, 132 (15), 154104 (2010). 
 A consistent and accurate ab initio parametrization of density
 functional dispersion correction (DFT-D) for the 94 elements H-Pu.
 https://doi.org/10.1063/1.3382344

 VandeVondele, J; Hutter, J. 
 JOURNAL OF CHEMICAL PHYSICS, 127 (11), 114105 (2007). 
 Gaussian basis sets for accurate calculations on molecular systems in
 gas and condensed phases.
 https://doi.org/10.1063/1.2770708

 Krack, M. 
 THEORETICAL CHEMISTRY ACCOUNTS, 114 (1-3), 145-152 (2005). 
 Pseudopotentials for H to Kr optimized for gradient-corrected
 exchange-correlation functionals.
 https://doi.org/10.1007/s00214-005-0655-y

 VandeVondele, J; Krack, M; Mohamed, F; Parrinello, M; Chassaing, T;
 Hutter, J. COMPUTER PHYSICS COMMUNICATIONS, 167 (2), 103-128 (2005). 
 QUICKSTEP: Fast and accurate density functional calculations using a
 mixed Gaussian and plane waves approach.
 https://doi.org/10.1016/j.cpc.2004.12.014

 Frigo, M; Johnson, SG. 
 PROCEEDINGS OF THE IEEE, 93 (2), 216-231 (2005). 
 The design and implementation of FFTW3.
 https://doi.org/10.1109/JPROC.2004.840301

 Hartwigsen, C; Goedecker, S; Hutter, J. 
 PHYSICAL REVIEW B, 58 (7), 3641-3662 (1998). 
 Relativistic separable dual-space Gaussian pseudopotentials from H to Rn.
 https://doi.org/10.1103/PhysRevB.58.3641

 Lippert, G; Hutter, J; Parrinello, M. 
 MOLECULAR PHYSICS, 92 (3), 477-487 (1997). 
 A hybrid Gaussian and plane wave density functional scheme.
 https://doi.org/10.1080/002689797170220

 Perdew, JP; Burke, K; Ernzerhof, M. 
 PHYSICAL REVIEW LETTERS, 77 (18), 3865-3868 (1996). 
 Generalized gradient approximation made simple.
 https://doi.org/10.1103/PhysRevLett.77.3865

 Goedecker, S; Teter, M; Hutter, J. 
 PHYSICAL REVIEW B, 54 (3), 1703-1710 (1996). 
 Separable dual-space Gaussian pseudopotentials.
 https://doi.org/10.1103/PhysRevB.54.1703


 -------------------------------------------------------------------------------
 -                                                                             -
 -                                T I M I N G                                  -
 -                                                                             -
 -------------------------------------------------------------------------------
 SUBROUTINE                       CALLS  ASD         SELF TIME        TOTAL TIME
                                MAXIMUM       AVERAGE  MAXIMUM  AVERAGE  MAXIMUM
 CP2K                                 1  1.0    0.019    0.026  193.868  193.869
 qs_forces                            1  2.0    0.002    0.002  193.480  193.481
 qs_energies                          1  3.0    0.000    0.000  191.477  191.478
 scf_post_calculation_gpw             1  4.0    0.001    0.001  123.532  123.533
 get_localization_info                1  5.0    0.000    0.000  122.284  122.294
 qs_loc_driver                        1  6.0    0.000    0.000  122.284  122.294
 optimize_loc_berry                   1  7.0    0.030    0.042  122.279  122.291
 jacobi_rot_para                      1  8.0   90.948  101.076  122.182  122.182
 scf_env_do_scf                       1  4.0    0.000    0.000   66.881   66.912
 scf_env_do_scf_inner_loop           61  5.0    0.003    0.005   66.881   66.912
 rebuild_ks_matrix                   62  7.0    0.000    0.000   32.606   32.630
 qs_ks_build_kohn_sham_matrix        62  8.0    0.008    0.009   32.606   32.630
 qs_ks_update_qs_env                 61  6.0    0.000    0.001   31.852   31.875
 mp_allgather_d23                107478  9.0   22.537   30.172   22.537   30.172
 sum_up_and_integrate                62  9.0    0.071    0.093   20.483   20.524
 integrate_v_rspace                  62 10.0    0.001    0.002   20.412   20.459
 qs_rho_update_rho_low               62  6.0    0.000    0.000   19.525   19.538
 calculate_rho_elec                  62  7.0    0.052    0.076   19.524   19.537
 grid_integrate_task_list            62 11.0    5.547   16.259    5.547   16.259
 rs_pw_transfer                     500 10.5    0.004    0.005   14.076   15.959
 grid_collocate_task_list            62  8.0    5.703   15.394    5.703   15.394
 density_rs2pw                       62  8.0    0.003    0.004   13.421   15.366
 mp_alltoall_d11v                   923 10.4   11.130   13.109   11.130   13.109
 mp_waitany                       18896 12.4   10.787   12.896   10.787   12.896
 rs_gather_matrices                  62 11.0    0.015    0.018   10.821   12.832
 rs_pw_transfer_RS2PW_200            64 10.0    0.621    0.762   10.647   12.524
 pw_transfer                       1240 10.9    0.081    0.113   12.045   12.237
 fft_wrap_pw1pw2                   1116 12.0    0.009    0.012   11.856   12.045
 qs_scf_new_mos                      61  6.0    0.001    0.002   11.687   11.718
 fft_wrap_pw1pw2_200                744 13.3    1.051    1.232   11.254   11.436
 qs_vxc_create                       62  9.0    0.001    0.002   10.701   10.757
 xc_vxc_pw_create                    62 10.0    0.202    0.243   10.700   10.756
 eigensolver                         61  7.0    0.005    0.006   10.635   10.675
 fft3d_ps                          1116 14.0    4.346    5.099    9.107    9.331
 mp_sendrecv_zm3                 107478  9.0    6.560    9.043    6.560    9.043
 xc_pw_derive                       372 12.0    0.005    0.006    7.201    7.377
 cp_fm_diag_elpa                     61  8.0    0.000    0.001    7.226    7.295
 cp_fm_redistribute_end              61  9.0    3.148    7.075    3.161    7.079
 cp_fm_diag_elpa_base                61  9.0    3.821    6.816    3.882    6.931
 xc_rho_set_and_dset_create          62 11.0    0.125    0.138    5.346    6.048
 xc_pw_divergence                    62 11.0    0.003    0.003    4.918    5.070
 potential_pw2rs                     62 11.0    0.010    0.014    4.041    4.082
 gspace_mixing                       60  6.0    0.051    0.072    3.934    3.936
 -------------------------------------------------------------------------------

 The number of warnings for this run is : 2
 
 -------------------------------------------------------------------------------
  **** **** ******  **  PROGRAM ENDED AT                 2024-07-29 22:22:39.558
 ***** ** ***  *** **   PROGRAM RAN ON                                     cu325
 **    ****   ******    PROGRAM RAN BY                                     jxzhu
 ***** **    ** ** **   PROGRAM PROCESS ID                                 26138
  **** **  *******  **  PROGRAM STOPPED IN /public/home/jxzhu/tmp_calc/9d643e66b
                                           35f886dcfbeec425b872811054e1b1a/calc.
                                           001/task.000.000003
