 DBCSR| CPU Multiplication driver                                           XSMM
 DBCSR| Multrec recursion limit                                              512
 DBCSR| Multiplication stack size                                           1000
 DBCSR| Maximum elements for images                                    UNLIMITED
 DBCSR| Multiplicative factor virtual images                                   1
 DBCSR| Use multiplication densification                                       T
 DBCSR| Multiplication size stacks                                             3
 DBCSR| Number of 3D layers                                               SINGLE
 DBCSR| Use MPI memory allocation                                              T
 DBCSR| Use RMA algorithm                                                      F
 DBCSR| Use Communication thread                                               T
 DBCSR| Communication thread load                                             87


  **** **** ******  **  PROGRAM STARTED AT               2024-11-02 00:04:57.181
 ***** ** ***  *** **   PROGRAM STARTED ON                               c53-012
 **    ****   ******    PROGRAM STARTED BY                                 jxzhu
 ***** **    ** ** **   PROGRAM PROCESS ID                                268397
  **** **  *******  **  PROGRAM STARTED IN /data/jxzhu/nnp/dp_workdir/d1f764b96e
                                           9a01b62c3e35b0c4f5198f3ba3ed59/calc.0
                                           00/task.000.000004

 CP2K| version string:                                          CP2K version 7.1
 CP2K| source code revision number:                                  git:e635599
 CP2K| cp2kflags: libint fftw3 libxc elpa parallel mpi3 scalapack xsmm spglib   
 CP2K| is freely available from                            https://www.cp2k.org/
 CP2K| Program compiled at                           Mon Mar 8 20:53:19 CST 2021
 CP2K| Program compiled on                                                 mgt01
 CP2K| Program compiled for                                                local
 CP2K| Data directory path                                    /data/jxzhu/basis/
 CP2K| Input file name                                                 input.inp

 GLOBAL| Force Environment number                                              1
 GLOBAL| Basis set file name                                        BASIS_MOLOPT
 GLOBAL| Potential file name                                      GTH_POTENTIALS
 GLOBAL| MM Potential file name                                     MM_POTENTIAL
 GLOBAL| Coordinate file name                                          coord.xyz
 GLOBAL| Method name                                                        CP2K
 GLOBAL| Project name                                                       cp2k
 GLOBAL| Preferred FFT library                                             FFTW3
 GLOBAL| Preferred diagonalization lib.                                     ELPA
 GLOBAL| Run type                                                   ENERGY_FORCE
 GLOBAL| All-to-all communication in single precision                          F
 GLOBAL| FFTs using library dependent lengths                                  F
 GLOBAL| Global print level                                               MEDIUM
 GLOBAL| MPI I/O enabled                                                       T
 GLOBAL| Total number of message passing processes                            32
 GLOBAL| Number of threads for this process                                    1
 GLOBAL| This output is from process                                           0
 GLOBAL| CPU model name                Intel(R) Xeon(R) Gold 6226R CPU @ 2.90GHz
 GLOBAL| CPUID                                                              1003
 GLOBAL| Compiled for CPUID                                                 1002
 HINT in environment.F:814 The compiler target flags (x86_avx2) used to build
   this binary cannot exploit all extensions of this CPU model (x86_avx512).
   Consider compiler target flags as part of FCFLAGS and CFLAGS (ARCH file).

 MEMORY| system memory details [Kb]
 MEMORY|                        rank 0           min           max       average
 MEMORY| MemTotal            196472820     196472820     196472820     196472820
 MEMORY| MemFree             182937168     182937168     182937168     182937168
 MEMORY| Buffers                  2196          2196          2196          2196
 MEMORY| Cached                 796492        796492        796492        796492
 MEMORY| Slab                   433688        433688        433688        433688
 MEMORY| SReclaimable           136552        136552        136552        136552
 MEMORY| MemLikelyFree       183872408     183872408     183872408     183872408


 *** Fundamental physical constants (SI units) ***

 *** Literature: B. J. Mohr and B. N. Taylor,
 ***             CODATA recommended values of the fundamental physical
 ***             constants: 2006, Web Version 5.1
 ***             http://physics.nist.gov/constants

 Speed of light in vacuum [m/s]                             2.99792458000000E+08
 Magnetic constant or permeability of vacuum [N/A**2]       1.25663706143592E-06
 Electric constant or permittivity of vacuum [F/m]          8.85418781762039E-12
 Planck constant (h) [J*s]                                  6.62606896000000E-34
 Planck constant (h-bar) [J*s]                              1.05457162825177E-34
 Elementary charge [C]                                      1.60217648700000E-19
 Electron mass [kg]                                         9.10938215000000E-31
 Electron g factor [ ]                                     -2.00231930436220E+00
 Proton mass [kg]                                           1.67262163700000E-27
 Fine-structure constant                                    7.29735253760000E-03
 Rydberg constant [1/m]                                     1.09737315685270E+07
 Avogadro constant [1/mol]                                  6.02214179000000E+23
 Boltzmann constant [J/K]                                   1.38065040000000E-23
 Atomic mass unit [kg]                                      1.66053878200000E-27
 Bohr radius [m]                                            5.29177208590000E-11

 *** Conversion factors ***

 [u] -> [a.u.]                                              1.82288848426455E+03
 [Angstrom] -> [Bohr] = [a.u.]                              1.88972613288564E+00
 [a.u.] = [Bohr] -> [Angstrom]                              5.29177208590000E-01
 [a.u.] -> [s]                                              2.41888432650478E-17
 [a.u.] -> [fs]                                             2.41888432650478E-02
 [a.u.] -> [J]                                              4.35974393937059E-18
 [a.u.] -> [N]                                              8.23872205491840E-08
 [a.u.] -> [K]                                              3.15774647902944E+05
 [a.u.] -> [kJ/mol]                                         2.62549961709828E+03
 [a.u.] -> [kcal/mol]                                       6.27509468713739E+02
 [a.u.] -> [Pa]                                             2.94210107994716E+13
 [a.u.] -> [bar]                                            2.94210107994716E+08
 [a.u.] -> [atm]                                            2.90362800883016E+08
 [a.u.] -> [eV]                                             2.72113838565563E+01
 [a.u.] -> [Hz]                                             6.57968392072181E+15
 [a.u.] -> [1/cm] (wave numbers)                            2.19474631370540E+05
 [a.u./Bohr**2] -> [1/cm]                                   5.14048714338585E+03
 

 CELL_TOP| Volume [angstrom^3]:                                         4542.849
 CELL_TOP| Vector a [angstrom    11.246     0.000     0.000    |a| =      11.246
 CELL_TOP| Vector b [angstrom     0.000     9.739     0.000    |b| =       9.739
 CELL_TOP| Vector c [angstrom     0.000     0.000    41.478    |c| =      41.478
 CELL_TOP| Angle (b,c), alpha [degree]:                                   90.000
 CELL_TOP| Angle (a,c), beta  [degree]:                                   90.000
 CELL_TOP| Angle (a,b), gamma [degree]:                                   90.000
 CELL_TOP| Numerically orthorhombic:                                         YES

 GENERATE|  Preliminary Number of Bonds generated:                             0
 GENERATE|  Achieved consistency in connectivity generation.

 CELL| Volume [angstrom^3]:                                             4542.849
 CELL| Vector a [angstrom]:      11.246     0.000     0.000    |a| =      11.246
 CELL| Vector b [angstrom]:       0.000     9.739     0.000    |b| =       9.739
 CELL| Vector c [angstrom]:       0.000     0.000    41.478    |c| =      41.478
 CELL| Angle (b,c), alpha [degree]:                                       90.000
 CELL| Angle (a,c), beta  [degree]:                                       90.000
 CELL| Angle (a,b), gamma [degree]:                                       90.000
 CELL| Numerically orthorhombic:                                             YES

 CELL_REF| Volume [angstrom^3]:                                         4542.849
 CELL_REF| Vector a [angstrom    11.246     0.000     0.000    |a| =      11.246
 CELL_REF| Vector b [angstrom     0.000     9.739     0.000    |b| =       9.739
 CELL_REF| Vector c [angstrom     0.000     0.000    41.478    |c| =      41.478
 CELL_REF| Angle (b,c), alpha [degree]:                                   90.000
 CELL_REF| Angle (a,c), beta  [degree]:                                   90.000
 CELL_REF| Angle (a,b), gamma [degree]:                                   90.000
 CELL_REF| Numerically orthorhombic:                                         YES

 *******************************************************************************
 *******************************************************************************
 **                                                                           **
 **     #####                         ##              ##                      **
 **    ##   ##            ##          ##              ##                      **
 **   ##     ##                       ##            ######                    **
 **   ##     ##  ##   ##  ##   #####  ##  ##   ####   ##    #####    #####    **
 **   ##     ##  ##   ##  ##  ##      ## ##   ##      ##   ##   ##  ##   ##   **
 **   ##  ## ##  ##   ##  ##  ##      ####     ###    ##   ######   ######    **
 **    ##  ###   ##   ##  ##  ##      ## ##      ##   ##   ##       ##        **
 **     #######   #####   ##   #####  ##  ##  ####    ##    #####   ##        **
 **           ##                                                    ##        **
 **                                                                           **
 **                                                ... make the atoms dance   **
 **                                                                           **
 **            Copyright (C) by CP2K developers group (2000 - 2019)           **
 **                                                                           **
 *******************************************************************************

 DFT| Spin restricted Kohn-Sham (RKS) calculation                            RKS
 DFT| Multiplicity                                                             1
 DFT| Number of spin states                                                    1
 DFT| Charge                                                                   0
 DFT| Self-interaction correction (SIC)                                       NO
 DFT| Cutoffs: density                                              1.000000E-10
 DFT|          gradient                                             1.000000E-10
 DFT|          tau                                                  1.000000E-10
 DFT|          cutoff_smoothing_range                               0.000000E+00
 DFT| XC density smoothing                                                  NONE
 DFT| XC derivatives                                                          PW
 FUNCTIONAL| ROUTINE=NEW
 FUNCTIONAL| PBE:
 FUNCTIONAL| J.P.Perdew, K.Burke, M.Ernzerhof, Phys. Rev. Letter, vol. 77, n 18,
 FUNCTIONAL|  pp. 3865-3868, (1996){spin unpolarized}                           
 vdW POTENTIAL|                                                   Pair Potential
 vdW POTENTIAL|          DFT-D3 (Version 3.1)
 vdW POTENTIAL|          Potential Form: S. Grimme et al, JCP 132: 154104 (2010)
 vdW POTENTIAL|          Zero Damping
 vdW POTENTIAL|          Cutoff Radius [Bohr]:                             20.00
 vdW POTENTIAL|          s6 Scaling Factor:                               1.0000
 vdW POTENTIAL|          sr6 Scaling Factor:                              1.2170
 vdW POTENTIAL|          s8 Scaling Factor:                               0.7220
 vdW POTENTIAL|          Cutoff for CN calculation:                   0.1000E-05

 QS| Method:                                                                 GPW
 QS| Density plane wave grid type                        NON-SPHERICAL FULLSPACE
 QS| Number of grid levels:                                                    4
 QS| Density cutoff [a.u.]:                                                200.0
 QS| Multi grid cutoff [a.u.]: 1) grid level                               200.0
 QS|                           2) grid level                                66.7
 QS|                           3) grid level                                22.2
 QS|                           4) grid level                                 7.4
 QS| Grid level progression factor:                                          3.0
 QS| Relative density cutoff [a.u.]:                                        20.0
 QS| Consistent realspace mapping and integration 
 QS| Interaction thresholds: eps_pgf_orb:                                3.2E-07
 QS|                         eps_filter_matrix:                          0.0E+00
 QS|                         eps_core_charge:                            1.0E-15
 QS|                         eps_rho_gspace:                             1.0E-13
 QS|                         eps_rho_rspace:                             1.0E-13
 QS|                         eps_gvg_rspace:                             3.2E-07
 QS|                         eps_ppl:                                    1.0E-02
 QS|                         eps_ppnl:                                   3.2E-09


 ATOMIC KIND INFORMATION

  1. Atomic kind: Pt                                    Number of atoms:      96

     Orbital Basis Set                      DZVP-A5-Q10-323-MOL-T1-DERIVED_SET-1

       Number of orbital shell sets:                                           1
       Number of orbital shells:                                               6
       Number of primitive Cartesian functions:                                5
       Number of Cartesian basis functions:                                   23
       Number of spherical basis functions:                                   20
       Norm type:                                                              2

       Normalised Cartesian orbitals:

                        Set   Shell   Orbital            Exponent    Coefficient

                          1       1    2s                2.521825       0.177473
                                                         1.453920      -0.063399
                                                         0.614053      -0.407089
                                                         0.232656       0.262254
                                                         0.074788       0.047371

                          1       2    3s                2.521825      -0.049056
                                                         1.453920       0.044904
                                                         0.614053      -0.009756
                                                         0.232656      -0.144709
                                                         0.074788       0.144085

                          1       3    3px               2.521825      -0.317572
                                                         1.453920       0.534826
                                                         0.614053      -0.489458
                                                         0.232656       0.245631
                                                         0.074788       0.018221
                          1       3    3py               2.521825      -0.317572
                                                         1.453920       0.534826
                                                         0.614053      -0.489458
                                                         0.232656       0.245631
                                                         0.074788       0.018221
                          1       3    3pz               2.521825      -0.317572
                                                         1.453920       0.534826
                                                         0.614053      -0.489458
                                                         0.232656       0.245631
                                                         0.074788       0.018221

                          1       4    4dx2              2.521825       3.008522
                                                         1.453920      -1.224251
                                                         0.614053       0.225691
                                                         0.232656       0.125144
                                                         0.074788      -0.015348
                          1       4    4dxy              2.521825       5.210912
                                                         1.453920      -2.120465
                                                         0.614053       0.390909
                                                         0.232656       0.216756
                                                         0.074788      -0.026584
                          1       4    4dxz              2.521825       5.210912
                                                         1.453920      -2.120465
                                                         0.614053       0.390909
                                                         0.232656       0.216756
                                                         0.074788      -0.026584
                          1       4    4dy2              2.521825       3.008522
                                                         1.453920      -1.224251
                                                         0.614053       0.225691
                                                         0.232656       0.125144
                                                         0.074788      -0.015348
                          1       4    4dyz              2.521825       5.210912
                                                         1.453920      -2.120465
                                                         0.614053       0.390909
                                                         0.232656       0.216756
                                                         0.074788      -0.026584
                          1       4    4dz2              2.521825       3.008522
                                                         1.453920      -1.224251
                                                         0.614053       0.225691
                                                         0.232656       0.125144
                                                         0.074788      -0.015348

                          1       5    5dx2              2.521825       0.698026
                                                         1.453920      -1.511486
                                                         0.614053      -0.335394
                                                         0.232656      -0.025564
                                                         0.074788      -0.002699
                          1       5    5dxy              2.521825       1.209017
                                                         1.453920      -2.617970
                                                         0.614053      -0.580920
                                                         0.232656      -0.044277
                                                         0.074788      -0.004674
                          1       5    5dxz              2.521825       1.209017
                                                         1.453920      -2.617970
                                                         0.614053      -0.580920
                                                         0.232656      -0.044277
                                                         0.074788      -0.004674
                          1       5    5dy2              2.521825       0.698026
                                                         1.453920      -1.511486
                                                         0.614053      -0.335394
                                                         0.232656      -0.025564
                                                         0.074788      -0.002699
                          1       5    5dyz              2.521825       1.209017
                                                         1.453920      -2.617970
                                                         0.614053      -0.580920
                                                         0.232656      -0.044277
                                                         0.074788      -0.004674
                          1       5    5dz2              2.521825       0.698026
                                                         1.453920      -1.511486
                                                         0.614053      -0.335394
                                                         0.232656      -0.025564
                                                         0.074788      -0.002699

                          1       6    6dx2              2.521825       0.831079
                                                         1.453920      -0.709226
                                                         0.614053      -0.137351
                                                         0.232656       0.068642
                                                         0.074788       0.011745
                          1       6    6dxy              2.521825       1.439472
                                                         1.453920      -1.228415
                                                         0.614053      -0.237899
                                                         0.232656       0.118891
                                                         0.074788       0.020343
                          1       6    6dxz              2.521825       1.439472
                                                         1.453920      -1.228415
                                                         0.614053      -0.237899
                                                         0.232656       0.118891
                                                         0.074788       0.020343
                          1       6    6dy2              2.521825       0.831079
                                                         1.453920      -0.709226
                                                         0.614053      -0.137351
                                                         0.232656       0.068642
                                                         0.074788       0.011745
                          1       6    6dyz              2.521825       1.439472
                                                         1.453920      -1.228415
                                                         0.614053      -0.237899
                                                         0.232656       0.118891
                                                         0.074788       0.020343
                          1       6    6dz2              2.521825       0.831079
                                                         1.453920      -0.709226
                                                         0.614053      -0.137351
                                                         0.232656       0.068642
                                                         0.074788       0.011745

     GTH Potential information for                                   GTH-PBE-q10

       Description:                       Goedecker-Teter-Hutter pseudopotential
                                           Goedecker et al., PRB 54, 1703 (1996)
                                          Hartwigsen et al., PRB 58, 3641 (1998)
                                                      Krack, TCA 114, 145 (2005)

       Gaussian exponent of the core charge distribution:               1.317676
       Electronic configuration (s p d ...):                           1   0   9

       Parameters of the local part of the GTH pseudopotential:

                          rloc        C1          C2          C3          C4
                        0.616000   11.313635

       Parameters of the non-local part of the GTH pseudopotential:

                   l      r(l)      h(i,j,l)

                   0    0.550904    4.733491   -1.784594
                                   -1.784594    2.303901
                   1    0.674138    2.534798   -1.778066
                                   -1.778066    2.103836
                   2    0.457392   -7.264011    2.558665
                                    2.558665   -2.901253

  2. Atomic kind: O                                     Number of atoms:       1

     Orbital Basis Set                                        DZVP-MOLOPT-SR-GTH

       Number of orbital shell sets:                                           1
       Number of orbital shells:                                               5
       Number of primitive Cartesian functions:                                5
       Number of Cartesian basis functions:                                   14
       Number of spherical basis functions:                                   13
       Norm type:                                                              2

       Normalised Cartesian orbitals:

                        Set   Shell   Orbital            Exponent    Coefficient

                          1       1    2s               10.389228       0.396646
                                                         3.849621       0.208811
                                                         1.388401      -0.301641
                                                         0.496955      -0.274061
                                                         0.162492      -0.033677

                          1       2    3s               10.389228       0.303673
                                                         3.849621       0.240943
                                                         1.388401      -0.313066
                                                         0.496955      -0.043055
                                                         0.162492       0.213991

                          1       3    3px              10.389228      -1.530415
                                                         3.849621      -1.371928
                                                         1.388401      -0.761951
                                                         0.496955      -0.253695
                                                         0.162492      -0.035541
                          1       3    3py              10.389228      -1.530415
                                                         3.849621      -1.371928
                                                         1.388401      -0.761951
                                                         0.496955      -0.253695
                                                         0.162492      -0.035541
                          1       3    3pz              10.389228      -1.530415
                                                         3.849621      -1.371928
                                                         1.388401      -0.761951
                                                         0.496955      -0.253695
                                                         0.162492      -0.035541

                          1       4    4px              10.389228      -0.565392
                                                         3.849621      -0.038231
                                                         1.388401      -0.382373
                                                         0.496955       0.179070
                                                         0.162492       0.122714
                          1       4    4py              10.389228      -0.565392
                                                         3.849621      -0.038231
                                                         1.388401      -0.382373
                                                         0.496955       0.179070
                                                         0.162492       0.122714
                          1       4    4pz              10.389228      -0.565392
                                                         3.849621      -0.038231
                                                         1.388401      -0.382373
                                                         0.496955       0.179070
                                                         0.162492       0.122714

                          1       5    4dx2             10.389228       1.867377
                                                         3.849621       0.670994
                                                         1.388401       1.353441
                                                         0.496955       0.273538
                                                         0.162492       0.006620
                          1       5    4dxy             10.389228       3.234392
                                                         3.849621       1.162195
                                                         1.388401       2.344229
                                                         0.496955       0.473781
                                                         0.162492       0.011466
                          1       5    4dxz             10.389228       3.234392
                                                         3.849621       1.162195
                                                         1.388401       2.344229
                                                         0.496955       0.473781
                                                         0.162492       0.011466
                          1       5    4dy2             10.389228       1.867377
                                                         3.849621       0.670994
                                                         1.388401       1.353441
                                                         0.496955       0.273538
                                                         0.162492       0.006620
                          1       5    4dyz             10.389228       3.234392
                                                         3.849621       1.162195
                                                         1.388401       2.344229
                                                         0.496955       0.473781
                                                         0.162492       0.011466
                          1       5    4dz2             10.389228       1.867377
                                                         3.849621       0.670994
                                                         1.388401       1.353441
                                                         0.496955       0.273538
                                                         0.162492       0.006620

     GTH Potential information for                                    GTH-PBE-q6

       Description:                       Goedecker-Teter-Hutter pseudopotential
                                           Goedecker et al., PRB 54, 1703 (1996)
                                          Hartwigsen et al., PRB 58, 3641 (1998)
                                                      Krack, TCA 114, 145 (2005)

       Gaussian exponent of the core charge distribution:               8.360253
       Electronic configuration (s p d ...):                               2   4

       Parameters of the local part of the GTH pseudopotential:

                          rloc        C1          C2          C3          C4
                        0.244554  -16.667215    2.487311

       Parameters of the non-local part of the GTH pseudopotential:

                   l      r(l)      h(i,j,l)

                   0    0.220956   18.337458
                   1    0.211332

  3. Atomic kind: H                                     Number of atoms:       2

     Orbital Basis Set                                        DZVP-MOLOPT-SR-GTH

       Number of orbital shell sets:                                           1
       Number of orbital shells:                                               3
       Number of primitive Cartesian functions:                                5
       Number of Cartesian basis functions:                                    5
       Number of spherical basis functions:                                    5
       Norm type:                                                              2

       Normalised Cartesian orbitals:

                        Set   Shell   Orbital            Exponent    Coefficient

                          1       1    2s               10.068468      -0.133023
                                                         2.680223      -0.177618
                                                         0.791502      -0.258419
                                                         0.239116      -0.107525
                                                         0.082193      -0.014019

                          1       2    3s               10.068468       0.344673
                                                         2.680223       1.819821
                                                         0.791502      -0.999069
                                                         0.239116       0.017430
                                                         0.082193       0.082660

                          1       3    3px              10.068468       0.155326
                                                         2.680223       0.367157
                                                         0.791502       0.311480
                                                         0.239116       0.080105
                                                         0.082193       0.033440
                          1       3    3py              10.068468       0.155326
                                                         2.680223       0.367157
                                                         0.791502       0.311480
                                                         0.239116       0.080105
                                                         0.082193       0.033440
                          1       3    3pz              10.068468       0.155326
                                                         2.680223       0.367157
                                                         0.791502       0.311480
                                                         0.239116       0.080105
                                                         0.082193       0.033440

     GTH Potential information for                                    GTH-PBE-q1

       Description:                       Goedecker-Teter-Hutter pseudopotential
                                           Goedecker et al., PRB 54, 1703 (1996)
                                          Hartwigsen et al., PRB 58, 3641 (1998)
                                                      Krack, TCA 114, 145 (2005)

       Gaussian exponent of the core charge distribution:              12.500000
       Electronic configuration (s p d ...):                                   1

       Parameters of the local part of the GTH pseudopotential:

                          rloc        C1          C2          C3          C4
                        0.200000   -4.178900    0.724463


 MOLECULE KIND INFORMATION


 All atoms are their own molecule, skipping detailed information


 TOTAL NUMBERS AND MAXIMUM NUMBERS

  Total number of            - Atomic kinds:                                   3
                             - Atoms:                                         99
                             - Shell sets:                                    99
                             - Shells:                                       587
                             - Primitive Cartesian functions:                495
                             - Cartesian basis functions:                   2232
                             - Spherical basis functions:                   1943

  Maximum angular momentum of- Orbital basis functions:                        2
                             - Local part of the GTH pseudopotential:          2
                             - Non-local part of the GTH pseudopotential:      4


 MODULE QUICKSTEP:  ATOMIC COORDINATES IN angstrom

  Atom  Kind  Element       X           Y           Z          Z(eff)       Mass

       1     1 Pt  78    1.405728    0.811598   15.000000     10.00     195.0840
       2     1 Pt  78    4.217185    0.811598   15.000000     10.00     195.0840
       3     1 Pt  78    7.028641    0.811598   15.000000     10.00     195.0840
       4     1 Pt  78    9.840098    0.811598   15.000000     10.00     195.0840
       5     1 Pt  78    0.000000    3.246390   15.000000     10.00     195.0840
       6     1 Pt  78    2.811457    3.246390   15.000000     10.00     195.0840
       7     1 Pt  78    5.622913    3.246390   15.000000     10.00     195.0840
       8     1 Pt  78    8.434370    3.246390   15.000000     10.00     195.0840
       9     1 Pt  78    1.405728    5.681183   15.000000     10.00     195.0840
      10     1 Pt  78    4.217185    5.681183   15.000000     10.00     195.0840
      11     1 Pt  78    7.028641    5.681183   15.000000     10.00     195.0840
      12     1 Pt  78    9.840098    5.681183   15.000000     10.00     195.0840
      13     1 Pt  78    0.000000    8.115976   15.000000     10.00     195.0840
      14     1 Pt  78    2.811457    8.115976   15.000000     10.00     195.0840
      15     1 Pt  78    5.622913    8.115976   15.000000     10.00     195.0840
      16     1 Pt  78    8.434370    8.115976   15.000000     10.00     195.0840
      17     1 Pt  78    0.000000    1.623195   17.295545     10.00     195.0840
      18     1 Pt  78    2.811457    1.623195   17.295545     10.00     195.0840
      19     1 Pt  78    5.622913    1.623195   17.295545     10.00     195.0840
      20     1 Pt  78    8.434370    1.623195   17.295545     10.00     195.0840
      21     1 Pt  78    1.405728    4.057988   17.295545     10.00     195.0840
      22     1 Pt  78    4.217185    4.057988   17.295545     10.00     195.0840
      23     1 Pt  78    7.028641    4.057988   17.295545     10.00     195.0840
      24     1 Pt  78    9.840098    4.057988   17.295545     10.00     195.0840
      25     1 Pt  78    0.000000    6.492781   17.295545     10.00     195.0840
      26     1 Pt  78    2.811457    6.492781   17.295545     10.00     195.0840
      27     1 Pt  78    5.622913    6.492781   17.295545     10.00     195.0840
      28     1 Pt  78    8.434370    6.492781   17.295545     10.00     195.0840
      29     1 Pt  78    1.405728    8.927574   17.295545     10.00     195.0840
      30     1 Pt  78    4.217185    8.927574   17.295545     10.00     195.0840
      31     1 Pt  78    7.028641    8.927574   17.295545     10.00     195.0840
      32     1 Pt  78    9.840098    8.927574   17.295545     10.00     195.0840
      33     1 Pt  78    0.000000    0.000000   19.591089     10.00     195.0840
      34     1 Pt  78    2.811457    0.000000   19.591089     10.00     195.0840
      35     1 Pt  78    5.622913    0.000000   19.591089     10.00     195.0840
      36     1 Pt  78    8.434370    0.000000   19.591089     10.00     195.0840
      37     1 Pt  78    1.405728    2.434793   19.591089     10.00     195.0840
      38     1 Pt  78    4.217185    2.434793   19.591089     10.00     195.0840
      39     1 Pt  78    7.028641    2.434793   19.591089     10.00     195.0840
      40     1 Pt  78    9.840098    2.434793   19.591089     10.00     195.0840
      41     1 Pt  78    0.000000    4.869586   19.591089     10.00     195.0840
      42     1 Pt  78    2.811457    4.869586   19.591089     10.00     195.0840
      43     1 Pt  78    5.622913    4.869586   19.591089     10.00     195.0840
      44     1 Pt  78    8.434370    4.869586   19.591089     10.00     195.0840
      45     1 Pt  78    1.405728    7.304378   19.591089     10.00     195.0840
      46     1 Pt  78    4.217185    7.304378   19.591089     10.00     195.0840
      47     1 Pt  78    7.028641    7.304378   19.591089     10.00     195.0840
      48     1 Pt  78    9.840098    7.304378   19.591089     10.00     195.0840
      49     1 Pt  78    1.405728    0.811598   21.886634     10.00     195.0840
      50     1 Pt  78    4.217185    0.811598   21.886634     10.00     195.0840
      51     1 Pt  78    7.028641    0.811598   21.886634     10.00     195.0840
      52     1 Pt  78    9.840098    0.811598   21.886634     10.00     195.0840
      53     1 Pt  78    0.000000    3.246390   21.886634     10.00     195.0840
      54     1 Pt  78    2.811457    3.246390   21.886634     10.00     195.0840
      55     1 Pt  78    5.622913    3.246390   21.886634     10.00     195.0840
      56     1 Pt  78    8.434370    3.246390   21.886634     10.00     195.0840
      57     1 Pt  78    1.405728    5.681183   21.886634     10.00     195.0840
      58     1 Pt  78    4.217185    5.681183   21.886634     10.00     195.0840
      59     1 Pt  78    7.028641    5.681183   21.886634     10.00     195.0840
      60     1 Pt  78    9.840098    5.681183   21.886634     10.00     195.0840
      61     1 Pt  78    0.000000    8.115976   21.886634     10.00     195.0840
      62     1 Pt  78    2.811457    8.115976   21.886634     10.00     195.0840
      63     1 Pt  78    5.622913    8.115976   21.886634     10.00     195.0840
      64     1 Pt  78    8.434370    8.115976   21.886634     10.00     195.0840
      65     1 Pt  78    0.000000    1.623195   24.182179     10.00     195.0840
      66     1 Pt  78    2.811457    1.623195   24.182179     10.00     195.0840
      67     1 Pt  78    5.622913    1.623195   24.182179     10.00     195.0840
      68     1 Pt  78    8.434370    1.623195   24.182179     10.00     195.0840
      69     1 Pt  78    1.405728    4.057988   24.182179     10.00     195.0840
      70     1 Pt  78    4.217185    4.057988   24.182179     10.00     195.0840
      71     1 Pt  78    7.028641    4.057988   24.182179     10.00     195.0840
      72     1 Pt  78    9.840098    4.057988   24.182179     10.00     195.0840
      73     1 Pt  78    0.000000    6.492781   24.182179     10.00     195.0840
      74     1 Pt  78    2.811457    6.492781   24.182179     10.00     195.0840
      75     1 Pt  78    5.622913    6.492781   24.182179     10.00     195.0840
      76     1 Pt  78    8.434370    6.492781   24.182179     10.00     195.0840
      77     1 Pt  78    1.405728    8.927574   24.182179     10.00     195.0840
      78     1 Pt  78    4.217185    8.927574   24.182179     10.00     195.0840
      79     1 Pt  78    7.028641    8.927574   24.182179     10.00     195.0840
      80     1 Pt  78    9.840098    8.927574   24.182179     10.00     195.0840
      81     1 Pt  78    0.000000    0.000000   26.477723     10.00     195.0840
      82     1 Pt  78    2.811457    0.000000   26.477723     10.00     195.0840
      83     1 Pt  78    5.622913    0.000000   26.477723     10.00     195.0840
      84     1 Pt  78    8.434370    0.000000   26.477723     10.00     195.0840
      85     1 Pt  78    1.405728    2.434793   26.477723     10.00     195.0840
      86     1 Pt  78    4.217185    2.434793   26.477723     10.00     195.0840
      87     1 Pt  78    7.028641    2.434793   26.477723     10.00     195.0840
      88     1 Pt  78    9.840098    2.434793   26.477723     10.00     195.0840
      89     1 Pt  78    0.000000    4.869586   26.477723     10.00     195.0840
      90     1 Pt  78    2.811457    4.869586   26.477723     10.00     195.0840
      91     1 Pt  78    5.622913    4.869586   26.477723     10.00     195.0840
      92     1 Pt  78    8.434370    4.869586   26.477723     10.00     195.0840
      93     1 Pt  78    1.405728    7.304378   26.477723     10.00     195.0840
      94     1 Pt  78    4.217185    7.304378   26.477723     10.00     195.0840
      95     1 Pt  78    7.028641    7.304378   26.477723     10.00     195.0840
      96     1 Pt  78    9.840098    7.304378   26.477723     10.00     195.0840
      97     2 O    8    5.622913    4.869586   28.777723      6.00      15.9994
      98     3 H    1    5.062566    5.632825   28.981673      1.00       1.0079
      99     3 H    1    5.062566    4.106347   28.981673      1.00       1.0079




 SCF PARAMETERS         Density guess:                                   RESTART
                        --------------------------------------------------------
                        max_scf:                                             500
                        max_scf_history:                                       0
                        max_diis:                                              4
                        --------------------------------------------------------
                        eps_scf:                                        1.00E-06
                        eps_scf_history:                                0.00E+00
                        eps_diis:                                       1.00E-01
                        eps_eigval:                                     1.00E-05
                        --------------------------------------------------------
                        level_shift [a.u.]:                                 0.00
                        added MOs                                       500    0
                        --------------------------------------------------------
                        Mixing method:                            BROYDEN_MIXING
                                                charge density mixing in g-space
                        --------------------------------------------------------
                        Smear method:                                FERMI_DIRAC
                        Electronic temperature [K]:                        300.0
                        Electronic temperature [a.u.]:                  9.50E-04
                        Accuracy threshold:                             1.00E-10
                        --------------------------------------------------------
                        No outer SCF

 PW_GRID| Information for grid number                                          1
 PW_GRID| Grid distributed over                                    32 processors
 PW_GRID| Real space group dimensions                                    32    1
 PW_GRID| the grid is blocked:                                                NO
 PW_GRID| Cutoff [a.u.]                                                    200.0
 PW_GRID| spherical cutoff:                                                   NO
 PW_GRID|   Bounds   1            -67      67                Points:         135
 PW_GRID|   Bounds   2            -60      59                Points:         120
 PW_GRID|   Bounds   3           -250     249                Points:         500
 PW_GRID| Volume element (a.u.^3)  0.3785E-02     Volume (a.u.^3)     30656.6653
 PW_GRID| Grid span                                                    FULLSPACE
 PW_GRID|   Distribution                         Average         Max         Min
 PW_GRID|   G-Vectors                           253125.0      253125      253125
 PW_GRID|   G-Rays                                1875.0        1875        1875
 PW_GRID|   Real Space Points                   253125.0      300000      240000

 PW_GRID| Information for grid number                                          2
 PW_GRID| Number of the reference grid                                         1
 PW_GRID| Grid distributed over                                    32 processors
 PW_GRID| Real space group dimensions                                    32    1
 PW_GRID| the grid is blocked:                                                NO
 PW_GRID| Cutoff [a.u.]                                                     66.7
 PW_GRID| spherical cutoff:                                                   NO
 PW_GRID|   Bounds   1            -40      39                Points:          80
 PW_GRID|   Bounds   2            -36      35                Points:          72
 PW_GRID|   Bounds   3           -150     149                Points:         300
 PW_GRID| Volume element (a.u.^3)  0.1774E-01     Volume (a.u.^3)     30656.6653
 PW_GRID| Grid span                                                    FULLSPACE
 PW_GRID|   Distribution                         Average         Max         Min
 PW_GRID|   G-Vectors                            54000.0       54640       53520
 PW_GRID|   G-Rays                                 675.0         683         669
 PW_GRID|   Real Space Points                    54000.0       64800       43200

 PW_GRID| Information for grid number                                          3
 PW_GRID| Number of the reference grid                                         1
 PW_GRID| Grid distributed over                                    32 processors
 PW_GRID| Real space group dimensions                                    32    1
 PW_GRID| the grid is blocked:                                                NO
 PW_GRID| Cutoff [a.u.]                                                     22.2
 PW_GRID| spherical cutoff:                                                   NO
 PW_GRID|   Bounds   1            -22      22                Points:          45
 PW_GRID|   Bounds   2            -20      19                Points:          40
 PW_GRID|   Bounds   3            -90      89                Points:         180
 PW_GRID| Volume element (a.u.^3)  0.9462E-01     Volume (a.u.^3)     30656.6653
 PW_GRID| Grid span                                                    FULLSPACE
 PW_GRID|   Distribution                         Average         Max         Min
 PW_GRID|   G-Vectors                            10125.0       10260       10035
 PW_GRID|   G-Rays                                 225.0         228         223
 PW_GRID|   Real Space Points                    10125.0       14400        7200

 PW_GRID| Information for grid number                                          4
 PW_GRID| Number of the reference grid                                         1
 PW_GRID| Grid distributed over                                    32 processors
 PW_GRID| Real space group dimensions                                     4    8
 PW_GRID| the grid is blocked:                                                NO
 PW_GRID| Cutoff [a.u.]                                                      7.4
 PW_GRID| spherical cutoff:                                                   NO
 PW_GRID|   Bounds   1            -13      13                Points:          27
 PW_GRID|   Bounds   2            -12      11                Points:          24
 PW_GRID|   Bounds   3            -50      49                Points:         100
 PW_GRID| Volume element (a.u.^3)  0.4731         Volume (a.u.^3)     30656.6653
 PW_GRID| Grid span                                                    FULLSPACE
 PW_GRID|   Distribution                         Average         Max         Min
 PW_GRID|   G-Vectors                             2025.0        2133        1890
 PW_GRID|   G-Rays                                  75.0          79          70
 PW_GRID|   Real Space Points                     2025.0        2100        1800

 POISSON| Solver                                                        PERIODIC
 POISSON| Periodicity                                                        XYZ

 RS_GRID| Information for grid number                                          1
 RS_GRID|   Bounds   1            -67      67                Points:         135
 RS_GRID|   Bounds   2            -60      59                Points:         120
 RS_GRID|   Bounds   3           -250     249                Points:         500
 RS_GRID| Real space distribution over                                 32 groups
 RS_GRID| Real space distribution along direction                              3
 RS_GRID| Border size                                                         34
 RS_GRID|   Distribution                         Average         Max         Min
 RS_GRID|   Planes                                  83.6          84          83

 RS_GRID| Information for grid number                                          2
 RS_GRID|   Bounds   1            -40      39                Points:          80
 RS_GRID|   Bounds   2            -36      35                Points:          72
 RS_GRID|   Bounds   3           -150     149                Points:         300
 RS_GRID| Real space distribution over                                 32 groups
 RS_GRID| Real space distribution along direction                              3
 RS_GRID| Border size                                                         24
 RS_GRID|   Distribution                         Average         Max         Min
 RS_GRID|   Planes                                  57.4          58          57

 RS_GRID| Information for grid number                                          3
 RS_GRID|   Bounds   1            -22      22                Points:          45
 RS_GRID|   Bounds   2            -20      19                Points:          40
 RS_GRID|   Bounds   3            -90      89                Points:         180
 RS_GRID| Real space fully replicated
 RS_GRID| Group size                                                           1

 RS_GRID| Information for grid number                                          4
 RS_GRID|   Bounds   1            -13      13                Points:          27
 RS_GRID|   Bounds   2            -12      11                Points:          24
 RS_GRID|   Bounds   3            -50      49                Points:         100
 RS_GRID| Real space fully replicated
 RS_GRID| Group size                                                           1

 Number of electrons:                                                        968
 Number of occupied orbitals:                                                484
 Number of molecular orbitals:                                               984

 Number of orbital functions:                                               1943
 Number of independent orbital functions:                                   1943

 Extrapolation method: initial_guess


 SCF WAVEFUNCTION OPTIMIZATION

  Step     Update method      Time    Convergence         Total energy    Change
  ------------------------------------------------------------------------------
     1 NoMix/Diag. 0.30E+00    0.9     0.18352938     -2538.0055094689 -2.54E+03
     2 Broy./Diag. 0.30E+00    1.4     0.16092961     -2538.5222219453 -5.17E-01
     3 Broy./Diag. 0.30E+00    1.4     0.16032245     -2538.5158515445  6.37E-03
     4 Broy./Diag. 0.30E+00    1.4     0.03006688     -2538.2423560611  2.73E-01
     5 Broy./Diag. 0.30E+00    1.4     0.01914290     -2538.1697672090  7.26E-02
     6 Broy./Diag. 0.30E+00    1.4     0.01128485     -2537.9984135053  1.71E-01
     7 Broy./Diag. 0.30E+00    1.4     0.00668643     -2538.1750902418 -1.77E-01
     8 Broy./Diag. 0.30E+00    1.4     0.00532854     -2538.0250974782  1.50E-01
     9 Broy./Diag. 0.30E+00    1.4     0.00316030     -2538.0926457781 -6.75E-02
    10 Broy./Diag. 0.30E+00    1.4     0.00248633     -2538.0699485329  2.27E-02
    11 Broy./Diag. 0.30E+00    1.4     0.00136228     -2538.0735915149 -3.64E-03
    12 Broy./Diag. 0.30E+00    1.4     0.00137896     -2538.0761005539 -2.51E-03
    13 Broy./Diag. 0.30E+00    1.4     0.00206459     -2538.0718448991  4.26E-03
    14 Broy./Diag. 0.30E+00    1.4     0.00095256     -2538.0602798710  1.16E-02
    15 Broy./Diag. 0.30E+00    1.4     0.00091311     -2538.0622500762 -1.97E-03
    16 Broy./Diag. 0.30E+00    1.5     0.00063002     -2538.0654893185 -3.24E-03
    17 Broy./Diag. 0.30E+00    1.4     0.00076943     -2538.0588983714  6.59E-03
    18 Broy./Diag. 0.30E+00    1.4     0.00063259     -2538.0708661010 -1.20E-02
    19 Broy./Diag. 0.30E+00    1.4     0.00052610     -2538.0626092123  8.26E-03
    20 Broy./Diag. 0.30E+00    1.4     0.00032290     -2538.0694704051 -6.86E-03
    21 Broy./Diag. 0.30E+00    1.4     0.00023002     -2538.0705563887 -1.09E-03
    22 Broy./Diag. 0.30E+00    1.4     0.00011844     -2538.0701940864  3.62E-04
    23 Broy./Diag. 0.30E+00    1.4     0.00014685     -2538.0694577233  7.36E-04
    24 Broy./Diag. 0.30E+00    1.4     0.00013615     -2538.0695982226 -1.40E-04
    25 Broy./Diag. 0.30E+00    1.4     0.00011341     -2538.0689918636  6.06E-04
    26 Broy./Diag. 0.30E+00    1.4     0.00011126     -2538.0683700299  6.22E-04
    27 Broy./Diag. 0.30E+00    1.4     0.00018260     -2538.0687343097 -3.64E-04
    28 Broy./Diag. 0.30E+00    1.4     0.00013328     -2538.0661713553  2.56E-03
    29 Broy./Diag. 0.30E+00    1.4     0.00012184     -2538.0686096952 -2.44E-03
    30 Broy./Diag. 0.30E+00    1.4     0.00008860     -2538.0674217994  1.19E-03
    31 Broy./Diag. 0.30E+00    1.4     0.00007387     -2538.0677618125 -3.40E-04
    32 Broy./Diag. 0.30E+00    1.4     0.00004142     -2538.0681027794 -3.41E-04
    33 Broy./Diag. 0.30E+00    1.4     0.00004079     -2538.0681675720 -6.48E-05
    34 Broy./Diag. 0.30E+00    1.4     0.00003534     -2538.0682078284 -4.03E-05
    35 Broy./Diag. 0.30E+00    1.4     0.00003222     -2538.0683497572 -1.42E-04
    36 Broy./Diag. 0.30E+00    1.4     0.00003639     -2538.0682837589  6.60E-05
    37 Broy./Diag. 0.30E+00    1.4     0.00004803     -2538.0680015958  2.82E-04
    38 Broy./Diag. 0.30E+00    1.4     0.00003227     -2538.0686471641 -6.46E-04
    39 Broy./Diag. 0.30E+00    1.4     0.00002894     -2538.0679879709  6.59E-04
    40 Broy./Diag. 0.30E+00    1.4     0.00002340     -2538.0682865211 -2.99E-04
    41 Broy./Diag. 0.30E+00    1.4     0.00002435     -2538.0681423942  1.44E-04
    42 Broy./Diag. 0.30E+00    1.4     0.00001635     -2538.0680256450  1.17E-04
    43 Broy./Diag. 0.30E+00    1.4     0.00001766     -2538.0680966224 -7.10E-05
    44 Broy./Diag. 0.30E+00    1.4     0.00001473     -2538.0681460513 -4.94E-05
    45 Broy./Diag. 0.30E+00    1.4     0.00000704     -2538.0681151125  3.09E-05
    46 Broy./Diag. 0.30E+00    1.4     0.00001116     -2538.0681406149 -2.55E-05
    47 Broy./Diag. 0.30E+00    1.4     0.00001670     -2538.0682272664 -8.67E-05
    48 Broy./Diag. 0.30E+00    1.4     0.00001263     -2538.0680087429  2.19E-04
    49 Broy./Diag. 0.30E+00    1.4     0.00001011     -2538.0682372640 -2.29E-04
    50 Broy./Diag. 0.30E+00    1.4     0.00000859     -2538.0680890594  1.48E-04
    51 Broy./Diag. 0.30E+00    1.4     0.00000733     -2538.0681285690 -3.95E-05
    52 Broy./Diag. 0.30E+00    1.4     0.00000580     -2538.0681357731 -7.20E-06
    53 Broy./Diag. 0.30E+00    1.4     0.00000891     -2538.0680896692  4.61E-05
    54 Broy./Diag. 0.30E+00    1.4     0.00000644     -2538.0680742922  1.54E-05
    55 Broy./Diag. 0.30E+00    1.4     0.00000339     -2538.0680858350 -1.15E-05
    56 Broy./Diag. 0.30E+00    1.4     0.00000303     -2538.0680825963  3.24E-06
    57 Broy./Diag. 0.30E+00    1.4     0.00000411     -2538.0680719468  1.06E-05
    58 Broy./Diag. 0.30E+00    1.4     0.00000348     -2538.0681257732 -5.38E-05
    59 Broy./Diag. 0.30E+00    1.4     0.00000315     -2538.0680594026  6.64E-05
    60 Broy./Diag. 0.30E+00    1.4     0.00000331     -2538.0681135148 -5.41E-05
    61 Broy./Diag. 0.30E+00    1.4     0.00000214     -2538.0680933736  2.01E-05
    62 Broy./Diag. 0.30E+00    1.4     0.00000190     -2538.0680893626  4.01E-06
    63 Broy./Diag. 0.30E+00    1.4     0.00000244     -2538.0681000090 -1.06E-05
    64 Broy./Diag. 0.30E+00    1.4     0.00000175     -2538.0680995147  4.94E-07
    65 Broy./Diag. 0.30E+00    1.4     0.00000135     -2538.0680933381  6.18E-06
    66 Broy./Diag. 0.30E+00    1.4     0.00000124     -2538.0680937094 -3.71E-07
    67 Broy./Diag. 0.30E+00    1.4     0.00000117     -2538.0680959127 -2.20E-06
    68 Broy./Diag. 0.30E+00    1.4     0.00000101     -2538.0680801590  1.58E-05
    69 Broy./Diag. 0.30E+00    1.4     0.00000099     -2538.0680981927 -1.80E-05

  *** SCF run converged in    69 steps ***


  Electronic density on regular grids:       -967.9999999999        0.0000000001
  Core density on regular grids:              967.9999999998       -0.0000000002
  Total charge density on r-space grids:       -0.0000000001
  Total charge density g-space grids:          -0.0000000001

  Overlap energy of the core charge distribution:               0.00001067565657
  Self energy of the core charge distribution:              -4440.62962420003350
  Core Hamiltonian energy:                                   1439.78692688690717
  Hartree energy:                                             901.61693937617315
  Exchange-correlation energy:                               -436.69000414729851
  Dispersion energy:                                           -2.11984257984403
  Electronic entropic energy:                                  -0.03250416650351
  Fermi energy:                                                 0.00984888988257

  Total energy:                                             -2538.06809819266118

 The electron density is written in cube file format to the file:

 cp2k-ELECTRON_DENSITY-1_0.cube

 !-----------------------------------------------------------------------------!
                     Mulliken Population Analysis

 #  Atom  Element  Kind  Atomic population                           Net charge
       1     Pt       1         10.055184                             -0.055184
       2     Pt       1         10.054398                             -0.054398
       3     Pt       1         10.054150                             -0.054150
       4     Pt       1         10.054729                             -0.054729
       5     Pt       1         10.054505                             -0.054505
       6     Pt       1         10.054559                             -0.054559
       7     Pt       1         10.054736                             -0.054736
       8     Pt       1         10.054994                             -0.054994
       9     Pt       1         10.054568                             -0.054568
      10     Pt       1         10.055815                             -0.055815
      11     Pt       1         10.055666                             -0.055666
      12     Pt       1         10.054866                             -0.054866
      13     Pt       1         10.054412                             -0.054412
      14     Pt       1         10.055269                             -0.055269
      15     Pt       1         10.053863                             -0.053863
      16     Pt       1         10.055208                             -0.055208
      17     Pt       1          9.972426                              0.027574
      18     Pt       1          9.971967                              0.028033
      19     Pt       1          9.972325                              0.027675
      20     Pt       1          9.971782                              0.028218
      21     Pt       1          9.972409                              0.027591
      22     Pt       1          9.972911                              0.027089
      23     Pt       1          9.972866                              0.027134
      24     Pt       1          9.972270                              0.027730
      25     Pt       1          9.972229                              0.027771
      26     Pt       1          9.973105                              0.026895
      27     Pt       1          9.972967                              0.027033
      28     Pt       1          9.972997                              0.027003
      29     Pt       1          9.972867                              0.027133
      30     Pt       1          9.973183                              0.026817
      31     Pt       1          9.972993                              0.027007
      32     Pt       1          9.972914                              0.027086
      33     Pt       1          9.972736                              0.027264
      34     Pt       1          9.973534                              0.026466
      35     Pt       1          9.974841                              0.025159
      36     Pt       1          9.973872                              0.026128
      37     Pt       1          9.976153                              0.023847
      38     Pt       1          9.973775                              0.026225
      39     Pt       1          9.973973                              0.026027
      40     Pt       1          9.976239                              0.023761
      41     Pt       1          9.974585                              0.025415
      42     Pt       1          9.973859                              0.026141
      43     Pt       1          9.974694                              0.025306
      44     Pt       1          9.973563                              0.026437
      45     Pt       1          9.973462                              0.026538
      46     Pt       1          9.973321                              0.026679
      47     Pt       1          9.973586                              0.026414
      48     Pt       1          9.973533                              0.026467
      49     Pt       1          9.973699                              0.026301
      50     Pt       1          9.972522                              0.027478
      51     Pt       1          9.972724                              0.027276
      52     Pt       1          9.973473                              0.026527
      53     Pt       1          9.972110                              0.027890
      54     Pt       1          9.975948                              0.024052
      55     Pt       1          9.973464                              0.026536
      56     Pt       1          9.975787                              0.024213
      57     Pt       1          9.973281                              0.026719
      58     Pt       1          9.973694                              0.026306
      59     Pt       1          9.973757                              0.026243
      60     Pt       1          9.973384                              0.026616
      61     Pt       1          9.974579                              0.025421
      62     Pt       1          9.973784                              0.026216
      63     Pt       1          9.976598                              0.023402
      64     Pt       1          9.973474                              0.026526
      65     Pt       1          9.972354                              0.027646
      66     Pt       1          9.972572                              0.027428
      67     Pt       1          9.974516                              0.025484
      68     Pt       1          9.973325                              0.026675
      69     Pt       1          9.972722                              0.027278
      70     Pt       1          9.975014                              0.024986
      71     Pt       1          9.971036                              0.028964
      72     Pt       1          9.973429                              0.026571
      73     Pt       1          9.972471                              0.027529
      74     Pt       1          9.975107                              0.024893
      75     Pt       1          9.973667                              0.026333
      76     Pt       1          9.974287                              0.025713
      77     Pt       1          9.972999                              0.027001
      78     Pt       1          9.971872                              0.028128
      79     Pt       1          9.972983                              0.027017
      80     Pt       1          9.972939                              0.027061
      81     Pt       1         10.059897                             -0.059897
      82     Pt       1         10.058940                             -0.058940
      83     Pt       1         10.065878                             -0.065878
      84     Pt       1         10.056111                             -0.056111
      85     Pt       1         10.062666                             -0.062666
      86     Pt       1         10.095273                             -0.095273
      87     Pt       1         10.057520                             -0.057520
      88     Pt       1         10.059912                             -0.059912
      89     Pt       1         10.057606                             -0.057606
      90     Pt       1         10.075761                             -0.075761
      91     Pt       1         10.000293                             -0.000293
      92     Pt       1         10.042710                             -0.042710
      93     Pt       1         10.062423                             -0.062423
      94     Pt       1         10.096390                             -0.096390
      95     Pt       1         10.058939                             -0.058939
      96     Pt       1         10.059697                             -0.059697
      97     O        2          6.164623                             -0.164623
      98     H        3          0.843424                              0.156576
      99     H        3          0.843505                              0.156495
 # Total charge                            968.000000                  0.000000

 !-----------------------------------------------------------------------------!

 !-----------------------------------------------------------------------------!
                           Hirshfeld Charges

  #Atom  Element  Kind  Ref Charge     Population                    Net charge
      1       Pt     1      10.000         10.015                        -0.015
      2       Pt     1      10.000         10.015                        -0.015
      3       Pt     1      10.000         10.015                        -0.015
      4       Pt     1      10.000         10.015                        -0.015
      5       Pt     1      10.000         10.015                        -0.015
      6       Pt     1      10.000         10.015                        -0.015
      7       Pt     1      10.000         10.016                        -0.016
      8       Pt     1      10.000         10.015                        -0.015
      9       Pt     1      10.000         10.015                        -0.015
     10       Pt     1      10.000         10.018                        -0.018
     11       Pt     1      10.000         10.017                        -0.017
     12       Pt     1      10.000         10.015                        -0.015
     13       Pt     1      10.000         10.016                        -0.016
     14       Pt     1      10.000         10.016                        -0.016
     15       Pt     1      10.000         10.015                        -0.015
     16       Pt     1      10.000         10.016                        -0.016
     17       Pt     1      10.000          9.987                         0.013
     18       Pt     1      10.000          9.987                         0.013
     19       Pt     1      10.000          9.987                         0.013
     20       Pt     1      10.000          9.987                         0.013
     21       Pt     1      10.000          9.988                         0.012
     22       Pt     1      10.000          9.987                         0.013
     23       Pt     1      10.000          9.987                         0.013
     24       Pt     1      10.000          9.988                         0.012
     25       Pt     1      10.000          9.987                         0.013
     26       Pt     1      10.000          9.987                         0.013
     27       Pt     1      10.000          9.987                         0.013
     28       Pt     1      10.000          9.987                         0.013
     29       Pt     1      10.000          9.987                         0.013
     30       Pt     1      10.000          9.988                         0.012
     31       Pt     1      10.000          9.988                         0.012
     32       Pt     1      10.000          9.987                         0.013
     33       Pt     1      10.000          9.998                         0.002
     34       Pt     1      10.000          9.998                         0.002
     35       Pt     1      10.000          9.998                         0.002
     36       Pt     1      10.000          9.998                         0.002
     37       Pt     1      10.000          9.999                         0.001
     38       Pt     1      10.000          9.998                         0.002
     39       Pt     1      10.000          9.998                         0.002
     40       Pt     1      10.000          9.999                         0.001
     41       Pt     1      10.000          9.998                         0.002
     42       Pt     1      10.000          9.998                         0.002
     43       Pt     1      10.000          9.999                         0.001
     44       Pt     1      10.000          9.998                         0.002
     45       Pt     1      10.000          9.998                         0.002
     46       Pt     1      10.000          9.998                         0.002
     47       Pt     1      10.000          9.998                         0.002
     48       Pt     1      10.000          9.998                         0.002
     49       Pt     1      10.000          9.998                         0.002
     50       Pt     1      10.000          9.997                         0.003
     51       Pt     1      10.000          9.998                         0.002
     52       Pt     1      10.000          9.998                         0.002
     53       Pt     1      10.000          9.998                         0.002
     54       Pt     1      10.000          9.999                         0.001
     55       Pt     1      10.000          9.997                         0.003
     56       Pt     1      10.000          9.999                         0.001
     57       Pt     1      10.000          9.998                         0.002
     58       Pt     1      10.000          9.997                         0.003
     59       Pt     1      10.000          9.998                         0.002
     60       Pt     1      10.000          9.998                         0.002
     61       Pt     1      10.000          9.998                         0.002
     62       Pt     1      10.000          9.998                         0.002
     63       Pt     1      10.000          9.999                         0.001
     64       Pt     1      10.000          9.998                         0.002
     65       Pt     1      10.000          9.987                         0.013
     66       Pt     1      10.000          9.988                         0.012
     67       Pt     1      10.000          9.988                         0.012
     68       Pt     1      10.000          9.988                         0.012
     69       Pt     1      10.000          9.988                         0.012
     70       Pt     1      10.000          9.990                         0.010
     71       Pt     1      10.000          9.990                         0.010
     72       Pt     1      10.000          9.987                         0.013
     73       Pt     1      10.000          9.987                         0.013
     74       Pt     1      10.000          9.988                         0.012
     75       Pt     1      10.000          9.990                         0.010
     76       Pt     1      10.000          9.987                         0.013
     77       Pt     1      10.000          9.988                         0.012
     78       Pt     1      10.000          9.988                         0.012
     79       Pt     1      10.000          9.987                         0.013
     80       Pt     1      10.000          9.988                         0.012
     81       Pt     1      10.000         10.019                        -0.019
     82       Pt     1      10.000         10.023                        -0.023
     83       Pt     1      10.000         10.026                        -0.026
     84       Pt     1      10.000         10.019                        -0.019
     85       Pt     1      10.000         10.024                        -0.024
     86       Pt     1      10.000         10.098                        -0.098
     87       Pt     1      10.000         10.044                        -0.044
     88       Pt     1      10.000         10.019                        -0.019
     89       Pt     1      10.000         10.022                        -0.022
     90       Pt     1      10.000         10.087                        -0.087
     91       Pt     1      10.000         10.160                        -0.160
     92       Pt     1      10.000         10.027                        -0.027
     93       Pt     1      10.000         10.024                        -0.024
     94       Pt     1      10.000         10.098                        -0.098
     95       Pt     1      10.000         10.045                        -0.045
     96       Pt     1      10.000         10.019                        -0.019
     97       O      2       6.000          6.612                        -0.612
     98       H      3       1.000          0.423                         0.577
     99       H      3       1.000          0.423                         0.577

  Total Charge                                                            0.000
 !-----------------------------------------------------------------------------!

 LOCALIZE| The spread relative to a set of orbitals is computed
 LOCALIZE| Orbitals to be localized: All orbitals
 LOCALIZE| If fractional occupation, fully occupied MOs are those 
           within occupation tolerance of       0.00000001
 LOCALIZE| Spread defined by the Berry phase operator 
 LOCALIZE| Optimal unitary transformation generated by Jacobi algorithm

         Restart file not available filename=<cp2k-LOC_HOMO-1_0.wfn>

 LOCALIZATION|    The orbitals to be localized are read from localization restart file.

 LOCALIZATION| Spin    1 The first    437 occupied orbitals are localized,
[...]
     76      1      Pt          0.00003703     0.00026086    -0.00992337
     77      1      Pt         -0.00010048     0.00059351    -0.00996008
     78      1      Pt         -0.00004085     0.00073895    -0.00982272
     79      1      Pt         -0.00000857     0.00053389    -0.00952139
     80      1      Pt          0.00015158     0.00060202    -0.01009148
     81      1      Pt         -0.00004227     0.00114621     0.01316777
     82      1      Pt          0.00026043     0.00143335     0.01245005
     83      1      Pt         -0.00025709     0.00145225     0.01401030
     84      1      Pt          0.00014171     0.00135574     0.01241883
     85      1      Pt          0.00076334     0.00149099     0.01395824
     86      1      Pt         -0.00123401    -0.00117308     0.01082156
     87      1      Pt          0.00125142    -0.00136241     0.01044019
     88      1      Pt         -0.00059994     0.00122411     0.01357560
     89      1      Pt          0.00009012     0.00127048     0.01178950
     90      1      Pt         -0.00244275     0.00146838     0.01132987
     91      1      Pt          0.00114677     0.00082065     0.01192288
     92      1      Pt          0.00263973     0.00141659     0.01045728
     93      1      Pt          0.00069438     0.00099967     0.01376458
     94      1      Pt         -0.00153956     0.00376693     0.01107998
     95      1      Pt          0.00141906     0.00412820     0.01081901
     96      1      Pt         -0.00045140     0.00104172     0.01351388
     97      2      O           0.00693163    -0.00005130     0.00876042
     98      3      H          -0.00364555     0.00811988     0.00067365
     99      3      H          -0.00367036    -0.00808238     0.00069064
 SUM OF ATOMIC FORCES           0.00081851     0.00000080     0.00146781     0.00168060

 -------------------------------------------------------------------------------
 -                                                                             -
 -                                DBCSR STATISTICS                             -
 -                                                                             -
 -------------------------------------------------------------------------------
 COUNTER                                    TOTAL       BLAS       SMM       ACC
 flops     5 x    24 x     5                 4800       0.0%    100.0%      0.0%
 flops     5 x    24 x    13                 6240       0.0%    100.0%      0.0%
 flops    13 x    24 x     5                 6240       0.0%    100.0%      0.0%
 flops    13 x    24 x    13                 8112       0.0%    100.0%      0.0%
 flops     5 x    21 x     5                25200       0.0%    100.0%      0.0%
 flops     5 x    21 x    13                32760       0.0%    100.0%      0.0%
 flops    13 x    21 x     5                32760       0.0%    100.0%      0.0%
 flops    13 x    21 x    13                42588       0.0%    100.0%      0.0%
 flops     5 x    32 x     5               691200       0.0%    100.0%      0.0%
 flops     5 x    13 x    96               886080       0.0%    100.0%      0.0%
 flops    13 x     5 x    96               886080       0.0%    100.0%      0.0%
 flops     5 x    24 x    20               892800       0.0%    100.0%      0.0%
 flops    20 x    24 x     5               892800       0.0%    100.0%      0.0%
 flops     5 x    32 x    13               898560       0.0%    100.0%      0.0%
 flops    13 x    32 x     5               898560       0.0%    100.0%      0.0%
 flops    20 x    24 x    13               985920       0.0%    100.0%      0.0%
 flops    13 x    24 x    20               985920       0.0%    100.0%      0.0%
 flops     5 x     5 x    96              1022400       0.0%    100.0%      0.0%
 flops     5 x    13 x   120              1107600       0.0%    100.0%      0.0%
 flops    13 x     5 x   120              1107600       0.0%    100.0%      0.0%
 flops    13 x    32 x    13              1168128       0.0%    100.0%      0.0%
 flops     5 x     5 x   120              1278000       0.0%    100.0%      0.0%
 flops    13 x    13 x    96              2303808       0.0%    100.0%      0.0%
 flops    13 x    13 x   120              2879760       0.0%    100.0%      0.0%
 flops     5 x    21 x    20              4687200       0.0%    100.0%      0.0%
 flops    20 x    21 x     5              4687200       0.0%    100.0%      0.0%
 flops    20 x    21 x    13              5176080       0.0%    100.0%      0.0%
 flops    13 x    21 x    20              5176080       0.0%    100.0%      0.0%
 flops     5 x    13 x   128              7088640       0.0%    100.0%      0.0%
 flops    13 x     5 x   128              7088640       0.0%    100.0%      0.0%
 flops     5 x     5 x   128              8179200       0.0%    100.0%      0.0%
 flops    13 x    13 x   128             18430464       0.0%    100.0%      0.0%
 flops     5 x    20 x    96            125414400       0.0%    100.0%      0.0%
 flops    20 x     5 x    96            128140800       0.0%    100.0%      0.0%
 flops    20 x    32 x     5            128563200       0.0%    100.0%      0.0%
 flops     5 x    32 x    20            128563200       0.0%    100.0%      0.0%
 flops    20 x    13 x    96            138228480       0.0%    100.0%      0.0%
 flops    13 x    20 x    96            141772800       0.0%    100.0%      0.0%
 flops    20 x    32 x    13            141972480       0.0%    100.0%      0.0%
 flops    13 x    32 x    20            141972480       0.0%    100.0%      0.0%
 flops     5 x    20 x   120            156768000       0.0%    100.0%      0.0%
 flops    20 x     5 x   120            160176000       0.0%    100.0%      0.0%
 flops    20 x    13 x   120            172785600       0.0%    100.0%      0.0%
 flops    20 x    24 x    20            176947200       0.0%    100.0%      0.0%
 flops    13 x    20 x   120            177216000       0.0%    100.0%      0.0%
 flops    20 x    21 x    20            928972800       0.0%    100.0%      0.0%
 flops     5 x    20 x   128           1003315200       0.0%    100.0%      0.0%
 flops    20 x     5 x   128           1025126400       0.0%    100.0%      0.0%
 flops    20 x    13 x   128           1105827840       0.0%    100.0%      0.0%
 flops    13 x    20 x   128           1134182400       0.0%    100.0%      0.0%
 flops    20 x    20 x    96          25388236800       0.0%    100.0%      0.0%
 flops    20 x    32 x    20          25480396800       0.0%    100.0%      0.0%
 flops    20 x    20 x   120          31735296000       0.0%    100.0%      0.0%
 flops    20 x    20 x   128         203105894400       0.0%    100.0%      0.0%
 flops inhomo. stacks                           0       0.0%      0.0%      0.0%
 flops total                       292.905327E+09       0.0%    100.0%      0.0%
 flops max/rank                      9.867500E+09       0.0%    100.0%      0.0%
 matmuls inhomo. stacks                         0       0.0%      0.0%      0.0%
 matmuls total                            3920361       0.0%    100.0%      0.0%
 number of processed stacks                 47075       0.0%    100.0%      0.0%
 average stack size                                     0.0      83.3       0.0
 marketing flops                   304.919282E+09
 -------------------------------------------------------------------------------
 # multiplications                             78
 max memory usage/rank             335.101952E+06
 # max total images/rank                        2
 # max 3D layers                                1
 # MPI messages exchanged                   32448
 MPI messages size (bytes):
  total size                        12.503774E+09
  min size                          61.440000E+03
  max size                         985.352000E+03
  average size                     385.348062E+03
 MPI breakdown and total messages size (bytes):
             size <=      128                   0                        0
       128 < size <=     8192                   0                        0
      8192 < size <=    32768                   0                        0
     32768 < size <=   131072                1152                122269104
    131072 < size <=  4194304               31296              12381507976
   4194304 < size <= 16777216                   0                        0
  16777216 < size                               0                        0
 -------------------------------------------------------------------------------

 *** WARNING in dbcsr_mm.F:295 :: Using a non-square number of MPI ranks ***
 *** might lead to poor performance. Used ranks: 32 Suggested: 36 64     ***

 -------------------------------------------------------------------------------
 -                                                                             -
 -                      DBCSR MESSAGE PASSING PERFORMANCE                      -
 -                                                                             -
 -------------------------------------------------------------------------------
 ROUTINE             CALLS      AVE VOLUME [Bytes]
 MP_Group               78
 MP_Bcast               55                     12.
 MP_Allreduce          643                     11.
 MP_Alltoall          2123                 266082.
 MP_Wait              4992
 MP_ISend             2496                 168593.
 MP_IRecv             2496                 162993.
 MP_Memory            8742
 -------------------------------------------------------------------------------

 MEMORY| Estimated peak process memory [MiB]                                 320

 -------------------------------------------------------------------------------
 ----                             MULTIGRID INFO                            ----
 -------------------------------------------------------------------------------
 count for grid        1:         253307          cutoff [a.u.]          200.00
 count for grid        2:         270202          cutoff [a.u.]           66.67
 count for grid        3:         158199          cutoff [a.u.]           22.22
 count for grid        4:         114275          cutoff [a.u.]            7.41
 total gridlevel count  :         795983

 -------------------------------------------------------------------------------
 -                                                                             -
 -                         MESSAGE PASSING PERFORMANCE                         -
 -                                                                             -
 -------------------------------------------------------------------------------

 ROUTINE             CALLS      AVE VOLUME [Bytes]
 MP_Group                4
 MP_Bcast             2045                 281063.
 MP_Allreduce         2208                   4807.
 MP_Sync                 5
 MP_Alltoall          1557                9440429.
 MP_SendRecv         36518                 168583.
 MP_ISendRecv         8680                  66000.
 MP_Wait             20608
 MP_ISend            10792                 180112.
 MP_IRecv            10792                 180112.
 MP_Recv               150                 497408.
 MP_Write_All            3                1119280.
 -------------------------------------------------------------------------------


 -------------------------------------------------------------------------------
 -                                                                             -
 -                           R E F E R E N C E S                               -
 -                                                                             -
 -------------------------------------------------------------------------------
 
 CP2K version 7.1, the CP2K developers group (2019).
 CP2K is freely available from https://www.cp2k.org/ .

 Schuett, Ole; Messmer, Peter; Hutter, Juerg; VandeVondele, Joost. 
 Electronic Structure Calculations on Graphics Processing Units, John
 Wiley & Sons, Ltd, 173-190 (2016). 
 GPU-Accelerated Sparse Matrix-Matrix Multiplication for
 Linear Scaling Density Functional Theory.
 https://dx.doi.org/10.1002/9781118670712.ch8

 Borstnik, U; VandeVondele, J; Weber, V; Hutter, J. 
 PARALLEL COMPUTING, 40 (5-6), 47-58 (2014). 
 Sparse matrix multiplication: The distributed block-compressed sparse
 row library.
 https://dx.doi.org/10.1016/j.parco.2014.03.012

 Hutter, J; Iannuzzi, M; Schiffmann, F; VandeVondele, J. 
 WIREs Comput Mol Sci., 4 (1), 15-25 (2014). 
 CP2K: atomistic simulations of condensed matter systems.
 https://dx.doi.org/10.1002/wcms.1159

 Marek, A; Blum, V; Johanni, R; Havu, V; Lang, B; Auckenthaler, T;
 Heinecke, A; Bungartz, H; Lederer, H. 
 Journal of Physics: Condensed Matter, 26 (21), (2014). 
 The ELPA library: scalable parallel eigenvalue solutions for
 electronic structure
 theory and computational science.
 https://dx.doi.org/10.1088/0953-8984/26/21/213201

 Grimme, S; Ehrlich, S; Goerigk, L. 
 JOURNAL OF COMPUTATIONAL CHEMISTRY, 32, 1456 (2011). 
 Effect of the damping function in dispersion corrected density functional theory.
 https://dx.doi.org/10.1002/jcc.21759

 Grimme, S; Antony, J; Ehrlich, S; Krieg, H. 
 JOURNAL OF CHEMICAL PHYSICS, 132 (15), 154104 (2010). 
 A consistent and accurate ab initio parametrization of density
 functional dispersion correction (DFT-D) for the 94 elements H-Pu.
 https://dx.doi.org/10.1063/1.3382344

 VandeVondele, J; Hutter, J. 
 JOURNAL OF CHEMICAL PHYSICS, 127 (11), 114105 (2007). 
 Gaussian basis sets for accurate calculations on molecular systems in
 gas and condensed phases.
 https://dx.doi.org/10.1063/1.2770708

 Krack, M. 
 THEORETICAL CHEMISTRY ACCOUNTS, 114 (1-3), 145-152 (2005). 
 Pseudopotentials for H to Kr optimized for gradient-corrected
 exchange-correlation functionals.
 https://dx.doi.org/10.1007/s00214-005-0655-y

 VandeVondele, J; Krack, M; Mohamed, F; Parrinello, M; Chassaing, T;
 Hutter, J. COMPUTER PHYSICS COMMUNICATIONS, 167 (2), 103-128 (2005). 
 QUICKSTEP: Fast and accurate density functional calculations using a
 mixed Gaussian and plane waves approach.
 https://dx.doi.org/10.1016/j.cpc.2004.12.014

 Frigo, M; Johnson, SG. 
 PROCEEDINGS OF THE IEEE, 93 (2), 216-231 (2005). 
 The design and implementation of FFTW3.
 https://dx.doi.org/10.1109/JPROC.2004.840301

 Hartwigsen, C; Goedecker, S; Hutter, J. 
 PHYSICAL REVIEW B, 58 (7), 3641-3662 (1998). 
 Relativistic separable dual-space Gaussian pseudopotentials from H to Rn.
 https://dx.doi.org/10.1103/PhysRevB.58.3641

 Lippert, G; Hutter, J; Parrinello, M. 
 MOLECULAR PHYSICS, 92 (3), 477-487 (1997). 
 A hybrid Gaussian and plane wave density functional scheme.
 https://dx.doi.org/10.1080/002689797170220

 Perdew, JP; Burke, K; Ernzerhof, M. 
 PHYSICAL REVIEW LETTERS, 77 (18), 3865-3868 (1996). 
 Generalized gradient approximation made simple.
 https://dx.doi.org/10.1103/PhysRevLett.77.3865

 Goedecker, S; Teter, M; Hutter, J. 
 PHYSICAL REVIEW B, 54 (3), 1703-1710 (1996). 
 Separable dual-space Gaussian pseudopotentials.
 https://dx.doi.org/10.1103/PhysRevB.54.1703


 -------------------------------------------------------------------------------
 -                                                                             -
 -                                T I M I N G                                  -
 -                                                                             -
 -------------------------------------------------------------------------------
 SUBROUTINE                       CALLS  ASD         SELF TIME        TOTAL TIME
                                MAXIMUM       AVERAGE  MAXIMUM  AVERAGE  MAXIMUM
 CP2K                                 1  1.0    0.010    0.019  139.243  139.249
 qs_forces                            1  2.0    0.000    0.000  138.956  138.958
 qs_energies                          1  3.0    0.000    0.000  136.179  136.181
 scf_env_do_scf                       1  4.0    0.000    0.000   98.390   98.401
 scf_env_do_scf_inner_loop           69  5.0    0.003    0.011   98.387   98.399
 rebuild_ks_matrix                   70  7.0    0.000    0.000   53.062   53.075
 qs_ks_build_kohn_sham_matrix        70  8.0    0.008    0.009   53.062   53.075
 qs_ks_update_qs_env                 69  6.0    0.000    0.001   52.180   52.192
 scf_post_calculation_gpw             1  4.0    0.000    0.000   36.315   36.317
 get_localization_info                1  5.0    0.000    0.000   35.493   35.500
 qs_loc_driver                        1  6.0    0.000    0.000   35.493   35.500
 optimize_loc_berry                   1  7.0    0.015    0.017   35.485   35.487
 jacobi_rot_para                      1  8.0   28.216   30.188   35.398   35.398
 pw_transfer                       1400 10.4    0.073    0.080   28.044   28.291
 fft_wrap_pw1pw2                   1260 11.5    0.011    0.013   27.674   27.907
 fft_wrap_pw1pw2_200                840 12.5    2.274    2.481   26.690   26.967
 qs_rho_update_rho                   70  6.0    0.000    0.000   26.740   26.792
 calculate_rho_elec                  70  7.0   11.505   19.126   26.740   26.791
 sum_up_and_integrate                70  9.0    0.069    0.078   26.386   26.401
 integrate_v_rspace                  70 10.0   12.184   20.402   26.317   26.335
 qs_vxc_create                       70  9.0    0.002    0.002   23.174   23.334
 xc_vxc_pw_create                    70 10.0    0.278    0.339   23.172   23.332
 fft3d_ps                          1260 13.5   13.622   14.869   20.391   20.668
 density_rs2pw                       70  8.0    0.003    0.004   14.312   17.785
 rs_pw_transfer                     564 10.5    0.006    0.007   12.131   15.452
 xc_rho_set_and_dset_create          70 11.0    0.097    0.115   12.412   13.224
 mp_alltoall_d11v                  1051 10.4    8.629   12.218    8.629   12.218
 rs_distribute_matrix               141  9.5    0.118    0.302    8.683   12.138
 rs_pw_transfer_RS2PW_200            72 10.0    0.870    1.209    8.709   12.032
 qs_scf_new_mos                      69  6.0    0.001    0.001   11.746   11.770
 mp_waitany                       10792 12.4    8.306   11.756    8.306   11.756
 eigensolver                         69  7.0    0.004    0.005   10.359   10.382
 cp_fm_diag_elpa                     70  8.0    0.000    0.001    8.453    8.459
 cp_fm_diag_elpa_base                70  9.0    8.241    8.247    8.453    8.459
 gspace_mixing                       68  6.0    0.079    0.093    7.975    7.975
 mp_allgather_d23                 18197  9.0    4.791    7.003    4.791    7.003
 broyden_mixing                      68  7.0    5.617    5.656    5.711    5.720
 potential_pw2rs                     70 11.0    0.008    0.009    5.652    5.659
 xc_functional_eval                  70 12.0    0.001    0.001    4.508    5.437
 pbe_lda_eval                        70 13.0    4.507    5.437    4.507    5.437
 mp_alltoall_z22v                  1260 15.5    3.856    4.966    3.856    4.966
 yz_to_x                            491 14.3    1.109    1.243    3.218    3.819
 x_to_yz                            629 14.6    1.749    2.261    3.491    3.732
 pw_scatter_p                       699 13.8    2.815    2.979    2.815    2.979
 -------------------------------------------------------------------------------

 The number of warnings for this run is : 1
 
 -------------------------------------------------------------------------------
  **** **** ******  **  PROGRAM ENDED AT                 2024-11-02 00:07:16.569
 ***** ** ***  *** **   PROGRAM RAN ON                                   c53-012
 **    ****   ******    PROGRAM RAN BY                                     jxzhu
 ***** **    ** ** **   PROGRAM PROCESS ID                                268397
  **** **  *******  **  PROGRAM STOPPED IN /data/jxzhu/nnp/dp_workdir/d1f764b96e
                                           9a01b62c3e35b0c4f5198f3ba3ed59/calc.0
                                           00/task.000.000004
