 DBCSR| CPU Multiplication driver                                           XSMM
 DBCSR| Multrec recursion limit                                              512
 DBCSR| Multiplication stack size                                           1000
 DBCSR| Maximum elements for images                                    UNLIMITED
 DBCSR| Multiplicative factor virtual images                                   1
 DBCSR| Use multiplication densification                                       T
 DBCSR| Multiplication size stacks                                             3
 DBCSR| Use memory pool for CPU allocation                                     F
 DBCSR| Number of 3D layers                                               SINGLE
 DBCSR| Use MPI memory allocation                                              F
 DBCSR| Use RMA algorithm                                                      F
 DBCSR| Use Communication thread                                               T
 DBCSR| Communication thread load                                             87
 DBCSR| MPI: My node id                                                        0
 DBCSR| MPI: Number of nodes                                                 128
 DBCSR| OMP: Current number of threads                                         1
 DBCSR| OMP: Max number of threads                                             1
 DBCSR| Split modifier for TAS multiplication algorithm                  1.0E+00


  **** **** ******  **  PROGRAM STARTED AT               2023-12-02 19:48:58.751
 ***** ** ***  *** **   PROGRAM STARTED ON                                 cu385
 **    ****   ******    PROGRAM STARTED BY                                 jxzhu
 ***** **    ** ** **   PROGRAM PROCESS ID                                 12834
  **** **  *******  **  PROGRAM STARTED IN /public/home/jxzhu/tmp_calc/7584a93e1
                                           395414c6353bd81c17d8ce3b2a07fa1/calc/
                                           002100.000/search_lo.000000

 CP2K| version string:                                       CP2K version 2022.1
 CP2K| source code revision number:                                  git:2caeb6f
 CP2K| cp2kflags: omp libint fftw3 libxc elpa parallel mpi3 scalapack cosma xsmm
 CP2K|             plumed2 spglib mkl sirius libvori libbqb
 CP2K| is freely available from                            https://www.cp2k.org/
 CP2K| Program compiled at                           Mon Jul 3 17:37:06 CST 2023
 CP2K| Program compiled on                                                 mu003
 CP2K| Program compiled for                                                local
 CP2K| Data directory path                             /public/home/jxzhu/basis/
 CP2K| Input file name                                                 input.inp
 
 GLOBAL| Force Environment number                                              1
 GLOBAL| Basis set file name                                        BASIS_MOLOPT
 GLOBAL| Potential file name                                      GTH_POTENTIALS
 GLOBAL| MM Potential file name                                     MM_POTENTIAL
 GLOBAL| Coordinate file name                                          coord.xyz
 GLOBAL| Method name                                                        CP2K
 GLOBAL| Project name                                                       cp2k
 GLOBAL| Run type                                                   ENERGY_FORCE
 GLOBAL| FFT library                                                       FFTW3
 GLOBAL| Diagonalization library                                            ELPA
 GLOBAL| Minimum number of eigenvectors for ELPA usage                        16
 GLOBAL| Orthonormality check for eigenvectors                          DISABLED
 GLOBAL| Matrix multiplication library                                     COSMA
 GLOBAL| All-to-all communication in single precision                          F
 GLOBAL| FFTs using library dependent lengths                                  T
 GLOBAL| Grid backend                                                       AUTO
 GLOBAL| Global print level                                               MEDIUM
 GLOBAL| MPI I/O enabled                                                       T
 GLOBAL| Total number of message passing processes                           128
 GLOBAL| Number of threads for this process                                    1
 GLOBAL| This output is from process                                           0
 GLOBAL| Stack size for threads created by OpenMP (OMP_STACKSIZE)        default
 GLOBAL| CPU model name                 Intel(R) Xeon(R) Gold 6338 CPU @ 2.00GHz
 GLOBAL| CPUID                                                              1003

 MEMORY| system memory details [Kb]
 MEMORY|                        rank 0           min           max       average
 MEMORY| MemTotal            263619172     263619172     263619172     263619172
 MEMORY| MemFree             199022224     198878332     199022472     198950632
 MEMORY| Buffers                  3320            36          3320          1678
 MEMORY| Cached                1059700        838224       1059700        948962
 MEMORY| Slab                  1790272       1720772       1790272       1755522
 MEMORY| SReclaimable           245164        233360        245164        239262
 MEMORY| MemLikelyFree       200330408     199949952     200330656     200140534


 *** Fundamental physical constants (SI units) ***

 *** Literature: B. J. Mohr and B. N. Taylor,
 ***             CODATA recommended values of the fundamental physical
 ***             constants: 2006, Web Version 5.1
 ***             http://physics.nist.gov/constants

 Speed of light in vacuum [m/s]                             2.99792458000000E+08
 Magnetic constant or permeability of vacuum [N/A**2]       1.25663706143592E-06
 Electric constant or permittivity of vacuum [F/m]          8.85418781762039E-12
 Planck constant (h) [J*s]                                  6.62606896000000E-34
 Planck constant (h-bar) [J*s]                              1.05457162825177E-34
 Elementary charge [C]                                      1.60217648700000E-19
 Electron mass [kg]                                         9.10938215000000E-31
 Electron g factor [ ]                                     -2.00231930436220E+00
 Proton mass [kg]                                           1.67262163700000E-27
 Fine-structure constant                                    7.29735253760000E-03
 Rydberg constant [1/m]                                     1.09737315685270E+07
 Avogadro constant [1/mol]                                  6.02214179000000E+23
 Boltzmann constant [J/K]                                   1.38065040000000E-23
 Atomic mass unit [kg]                                      1.66053878200000E-27
 Bohr radius [m]                                            5.29177208590000E-11

 *** Conversion factors ***

 [u] -> [a.u.]                                              1.82288848426455E+03
 [Angstrom] -> [Bohr] = [a.u.]                              1.88972613288564E+00
 [a.u.] = [Bohr] -> [Angstrom]                              5.29177208590000E-01
 [a.u.] -> [s]                                              2.41888432650478E-17
 [a.u.] -> [fs]                                             2.41888432650478E-02
 [a.u.] -> [J]                                              4.35974393937059E-18
 [a.u.] -> [N]                                              8.23872205491840E-08
 [a.u.] -> [K]                                              3.15774647902944E+05
 [a.u.] -> [kJ/mol]                                         2.62549961709828E+03
 [a.u.] -> [kcal/mol]                                       6.27509468713739E+02
 [a.u.] -> [Pa]                                             2.94210107994716E+13
 [a.u.] -> [bar]                                            2.94210107994716E+08
 [a.u.] -> [atm]                                            2.90362800883016E+08
 [a.u.] -> [eV]                                             2.72113838565563E+01
 [a.u.] -> [Hz]                                             6.57968392072181E+15
 [a.u.] -> [1/cm] (wave numbers)                            2.19474631370540E+05
 [a.u./Bohr**2] -> [1/cm]                                   5.14048714338585E+03
 

 CELL_TOP| Volume [angstrom^3]:                                     17614.982639
 CELL_TOP| Vector a [angstrom    16.869     0.000     0.000   |a| =    16.869000
 CELL_TOP| Vector b [angstrom    -8.434    14.609     0.000   |b| =    16.869015
 CELL_TOP| Vector c [angstrom     0.000     0.000    71.478   |c| =    71.478000
 CELL_TOP| Angle (b,c), alpha [degree]:                                90.000000
 CELL_TOP| Angle (a,c), beta  [degree]:                                90.000000
 CELL_TOP| Angle (a,b), gamma [degree]:                               119.999970
 CELL_TOP| Numerically orthorhombic:                                          NO
 
 GENERATE|  Preliminary Number of Bonds generated:                             0
 GENERATE|  Achieved consistency in connectivity generation.

 CELL| Volume [angstrom^3]:                                         17614.982639
 CELL| Vector a [angstrom]:      16.869     0.000     0.000   |a| =    16.869000
 CELL| Vector b [angstrom]:      -8.434    14.609     0.000   |b| =    16.869015
 CELL| Vector c [angstrom]:       0.000     0.000    71.478   |c| =    71.478000
 CELL| Angle (b,c), alpha [degree]:                                    90.000000
 CELL| Angle (a,c), beta  [degree]:                                    90.000000
 CELL| Angle (a,b), gamma [degree]:                                   119.999970
 CELL| Numerically orthorhombic:                                              NO

 CELL_REF| Volume [angstrom^3]:                                     17614.982639
 CELL_REF| Vector a [angstrom    16.869     0.000     0.000   |a| =    16.869000
 CELL_REF| Vector b [angstrom    -8.434    14.609     0.000   |b| =    16.869015
 CELL_REF| Vector c [angstrom     0.000     0.000    71.478   |c| =    71.478000
 CELL_REF| Angle (b,c), alpha [degree]:                                90.000000
 CELL_REF| Angle (a,c), beta  [degree]:                                90.000000
 CELL_REF| Angle (a,b), gamma [degree]:                               119.999970
 CELL_REF| Numerically orthorhombic:                                          NO

 *******************************************************************************
 *******************************************************************************
 **                                                                           **
 **     #####                         ##              ##                      **
 **    ##   ##            ##          ##              ##                      **
 **   ##     ##                       ##            ######                    **
 **   ##     ##  ##   ##  ##   #####  ##  ##   ####   ##    #####    #####    **
 **   ##     ##  ##   ##  ##  ##      ## ##   ##      ##   ##   ##  ##   ##   **
 **   ##  ## ##  ##   ##  ##  ##      ####     ###    ##   ######   ######    **
 **    ##  ###   ##   ##  ##  ##      ## ##      ##   ##   ##       ##        **
 **     #######   #####   ##   #####  ##  ##  ####    ##    #####   ##        **
 **           ##                                                    ##        **
 **                                                                           **
 **                                                ... make the atoms dance   **
 **                                                                           **
 **            Copyright (C) by CP2K developers group (2000-2022)             **
 **                      J. Chem. Phys. 152, 194103 (2020)                    **
 **                                                                           **
 *******************************************************************************

 DFT| Spin restricted Kohn-Sham (RKS) calculation                            RKS
 DFT| Multiplicity                                                             1
 DFT| Number of spin states                                                    1
 DFT| Charge                                                                   0
 DFT| Self-interaction correction (SIC)                                       NO
 DFT| Cutoffs: density                                              1.000000E-10
 DFT|          gradient                                             1.000000E-10
 DFT|          tau                                                  1.000000E-10
 DFT|          cutoff_smoothing_range                               0.000000E+00
 DFT| XC density smoothing                                                  NONE
 DFT| XC derivatives                                                          PW

 FUNCTIONAL| PBE:
 FUNCTIONAL| J.P.Perdew, K.Burke, M.Ernzerhof, Phys. Rev. Letter, vol. 77, n 18,
 FUNCTIONAL|  pp. 3865-3868, (1996){spin unpolarized}                           

 vdW POTENTIAL|                                                   Pair Potential
 vdW POTENTIAL|          DFT-D3 (Version 3.1)
 vdW POTENTIAL|          Potential Form: S. Grimme et al, JCP 132: 154104 (2010)
 vdW POTENTIAL|          Zero Damping
 vdW POTENTIAL|          Cutoff Radius [Bohr]:                             20.00
 vdW POTENTIAL|          s6 Scaling Factor:                               1.0000
 vdW POTENTIAL|          sr6 Scaling Factor:                              1.2170
 vdW POTENTIAL|          s8 Scaling Factor:                               0.7220
 vdW POTENTIAL|          Cutoff for CN calculation:                   0.1000E-05

 QS| Method:                                                                 GPW
 QS| Density plane wave grid type                        NON-SPHERICAL FULLSPACE
 QS| Number of grid levels:                                                    4
 QS| Density cutoff [a.u.]:                                                200.0
 QS| Multi grid cutoff [a.u.]: 1) grid level                               200.0
 QS|                           2) grid level                                66.7
 QS|                           3) grid level                                22.2
 QS|                           4) grid level                                 7.4
 QS| Grid level progression factor:                                          3.0
 QS| Relative density cutoff [a.u.]:                                        20.0
 QS| Interaction thresholds: eps_pgf_orb:                                3.2E-07
 QS|                         eps_filter_matrix:                          0.0E+00
 QS|                         eps_core_charge:                            1.0E-15
 QS|                         eps_rho_gspace:                             1.0E-13
 QS|                         eps_rho_rspace:                             1.0E-13
 QS|                         eps_gvg_rspace:                             3.2E-07
 QS|                         eps_ppl:                                    1.0E-02
 QS|                         eps_ppnl:                                   3.2E-09


 ATOMIC KIND INFORMATION

  1. Atomic kind: O                                     Number of atoms:     100

     Orbital Basis Set                                        DZVP-MOLOPT-SR-GTH

       Number of orbital shell sets:                                           1
       Number of orbital shells:                                               5
       Number of primitive Cartesian functions:                                5
       Number of Cartesian basis functions:                                   14
       Number of spherical basis functions:                                   13
       Norm type:                                                              2

       Normalised Cartesian orbitals:

                        Set   Shell   Orbital            Exponent    Coefficient

                          1       1    2s               10.389228       0.396646
                                                         3.849621       0.208811
                                                         1.388401      -0.301641
                                                         0.496955      -0.274061
                                                         0.162492      -0.033677

                          1       2    3s               10.389228       0.303673
                                                         3.849621       0.240943
                                                         1.388401      -0.313066
                                                         0.496955      -0.043055
                                                         0.162492       0.213991

                          1       3    3px              10.389228      -1.530415
                                                         3.849621      -1.371928
                                                         1.388401      -0.761951
                                                         0.496955      -0.253695
                                                         0.162492      -0.035541
                          1       3    3py              10.389228      -1.530415
                                                         3.849621      -1.371928
                                                         1.388401      -0.761951
                                                         0.496955      -0.253695
                                                         0.162492      -0.035541
                          1       3    3pz              10.389228      -1.530415
                                                         3.849621      -1.371928
                                                         1.388401      -0.761951
                                                         0.496955      -0.253695
                                                         0.162492      -0.035541

                          1       4    4px              10.389228      -0.565392
                                                         3.849621      -0.038231
                                                         1.388401      -0.382373
                                                         0.496955       0.179070
                                                         0.162492       0.122714
                          1       4    4py              10.389228      -0.565392
                                                         3.849621      -0.038231
                                                         1.388401      -0.382373
                                                         0.496955       0.179070
                                                         0.162492       0.122714
                          1       4    4pz              10.389228      -0.565392
                                                         3.849621      -0.038231
                                                         1.388401      -0.382373
                                                         0.496955       0.179070
                                                         0.162492       0.122714

                          1       5    4dx2             10.389228       1.867377
                                                         3.849621       0.670994
                                                         1.388401       1.353441
                                                         0.496955       0.273538
                                                         0.162492       0.006620
                          1       5    4dxy             10.389228       3.234392
                                                         3.849621       1.162195
                                                         1.388401       2.344229
                                                         0.496955       0.473781
                                                         0.162492       0.011466
                          1       5    4dxz             10.389228       3.234392
                                                         3.849621       1.162195
                                                         1.388401       2.344229
                                                         0.496955       0.473781
                                                         0.162492       0.011466
                          1       5    4dy2             10.389228       1.867377
                                                         3.849621       0.670994
                                                         1.388401       1.353441
                                                         0.496955       0.273538
                                                         0.162492       0.006620
                          1       5    4dyz             10.389228       3.234392
                                                         3.849621       1.162195
                                                         1.388401       2.344229
                                                         0.496955       0.473781
                                                         0.162492       0.011466
                          1       5    4dz2             10.389228       1.867377
                                                         3.849621       0.670994
                                                         1.388401       1.353441
                                                         0.496955       0.273538
                                                         0.162492       0.006620

       Atomic covalent radius [Angstrom]:                                  0.730

       Atomic van der Waals radius [Angstrom]:                             1.520

     GTH Potential information for                                    GTH-PBE-q6

       Description:                       Goedecker-Teter-Hutter pseudopotential
                                           Goedecker et al., PRB 54, 1703 (1996)
                                          Hartwigsen et al., PRB 58, 3641 (1998)
                                                      Krack, TCA 114, 145 (2005)

       Gaussian exponent of the core charge distribution:               8.360253
       Electronic configuration (s p d ...):                               2   4

       Parameters of the local part of the GTH pseudopotential:

                          rloc        C1          C2          C3          C4
                        0.244554  -16.667215    2.487311

       Parameters of the non-local part of the GTH pseudopotential:

                   l      r(l)      h(i,j,l)

                   0    0.220956   18.337458
                   1    0.211332

  2. Atomic kind: H                                     Number of atoms:     200

     Orbital Basis Set                                        DZVP-MOLOPT-SR-GTH

       Number of orbital shell sets:                                           1
       Number of orbital shells:                                               3
       Number of primitive Cartesian functions:                                5
       Number of Cartesian basis functions:                                    5
       Number of spherical basis functions:                                    5
       Norm type:                                                              2

       Normalised Cartesian orbitals:

                        Set   Shell   Orbital            Exponent    Coefficient

                          1       1    2s               10.068468      -0.133023
                                                         2.680223      -0.177618
                                                         0.791502      -0.258419
                                                         0.239116      -0.107525
                                                         0.082193      -0.014019

                          1       2    3s               10.068468       0.344673
                                                         2.680223       1.819821
                                                         0.791502      -0.999069
                                                         0.239116       0.017430
                                                         0.082193       0.082660

                          1       3    3px              10.068468       0.155326
                                                         2.680223       0.367157
                                                         0.791502       0.311480
                                                         0.239116       0.080105
                                                         0.082193       0.033440
                          1       3    3py              10.068468       0.155326
                                                         2.680223       0.367157
                                                         0.791502       0.311480
                                                         0.239116       0.080105
                                                         0.082193       0.033440
                          1       3    3pz              10.068468       0.155326
                                                         2.680223       0.367157
                                                         0.791502       0.311480
                                                         0.239116       0.080105
                                                         0.082193       0.033440

       Atomic covalent radius [Angstrom]:                                  0.320

       Atomic van der Waals radius [Angstrom]:                             1.090

     GTH Potential information for                                    GTH-PBE-q1

       Description:                       Goedecker-Teter-Hutter pseudopotential
                                           Goedecker et al., PRB 54, 1703 (1996)
                                          Hartwigsen et al., PRB 58, 3641 (1998)
                                                      Krack, TCA 114, 145 (2005)

       Gaussian exponent of the core charge distribution:              12.500000
       Electronic configuration (s p d ...):                                   1

       Parameters of the local part of the GTH pseudopotential:

                          rloc        C1          C2          C3          C4
                        0.200000   -4.178900    0.724463

  3. Atomic kind: Pt                                    Number of atoms:     216

     Orbital Basis Set                      DZVP-A5-Q10-323-MOL-T1-DERIVED_SET-1

       Number of orbital shell sets:                                           1
       Number of orbital shells:                                               6
       Number of primitive Cartesian functions:                                5
       Number of Cartesian basis functions:                                   23
       Number of spherical basis functions:                                   20
       Norm type:                                                              2

       Normalised Cartesian orbitals:

                        Set   Shell   Orbital            Exponent    Coefficient

                          1       1    2s                2.521825       0.177473
                                                         1.453920      -0.063399
                                                         0.614053      -0.407089
                                                         0.232656       0.262254
                                                         0.074788       0.047371

                          1       2    3s                2.521825      -0.049056
                                                         1.453920       0.044904
                                                         0.614053      -0.009756
                                                         0.232656      -0.144709
                                                         0.074788       0.144085

                          1       3    3px               2.521825      -0.317572
                                                         1.453920       0.534826
                                                         0.614053      -0.489458
                                                         0.232656       0.245631
                                                         0.074788       0.018221
                          1       3    3py               2.521825      -0.317572
                                                         1.453920       0.534826
                                                         0.614053      -0.489458
                                                         0.232656       0.245631
                                                         0.074788       0.018221
                          1       3    3pz               2.521825      -0.317572
                                                         1.453920       0.534826
                                                         0.614053      -0.489458
                                                         0.232656       0.245631
                                                         0.074788       0.018221

                          1       4    4dx2              2.521825       3.008522
                                                         1.453920      -1.224251
                                                         0.614053       0.225691
                                                         0.232656       0.125144
                                                         0.074788      -0.015348
                          1       4    4dxy              2.521825       5.210912
                                                         1.453920      -2.120465
                                                         0.614053       0.390909
                                                         0.232656       0.216756
                                                         0.074788      -0.026584
                          1       4    4dxz              2.521825       5.210912
                                                         1.453920      -2.120465
                                                         0.614053       0.390909
                                                         0.232656       0.216756
                                                         0.074788      -0.026584
                          1       4    4dy2              2.521825       3.008522
                                                         1.453920      -1.224251
                                                         0.614053       0.225691
                                                         0.232656       0.125144
                                                         0.074788      -0.015348
                          1       4    4dyz              2.521825       5.210912
                                                         1.453920      -2.120465
                                                         0.614053       0.390909
                                                         0.232656       0.216756
                                                         0.074788      -0.026584
                          1       4    4dz2              2.521825       3.008522
                                                         1.453920      -1.224251
                                                         0.614053       0.225691
                                                         0.232656       0.125144
                                                         0.074788      -0.015348

                          1       5    5dx2              2.521825       0.698026
                                                         1.453920      -1.511486
                                                         0.614053      -0.335394
                                                         0.232656      -0.025564
                                                         0.074788      -0.002699
                          1       5    5dxy              2.521825       1.209017
                                                         1.453920      -2.617970
                                                         0.614053      -0.580920
                                                         0.232656      -0.044277
                                                         0.074788      -0.004674
                          1       5    5dxz              2.521825       1.209017
                                                         1.453920      -2.617970
                                                         0.614053      -0.580920
                                                         0.232656      -0.044277
                                                         0.074788      -0.004674
                          1       5    5dy2              2.521825       0.698026
                                                         1.453920      -1.511486
                                                         0.614053      -0.335394
                                                         0.232656      -0.025564
                                                         0.074788      -0.002699
                          1       5    5dyz              2.521825       1.209017
                                                         1.453920      -2.617970
                                                         0.614053      -0.580920
                                                         0.232656      -0.044277
                                                         0.074788      -0.004674
                          1       5    5dz2              2.521825       0.698026
                                                         1.453920      -1.511486
                                                         0.614053      -0.335394
                                                         0.232656      -0.025564
                                                         0.074788      -0.002699

                          1       6    6dx2              2.521825       0.831079
                                                         1.453920      -0.709226
                                                         0.614053      -0.137351
                                                         0.232656       0.068642
                                                         0.074788       0.011745
                          1       6    6dxy              2.521825       1.439472
                                                         1.453920      -1.228415
                                                         0.614053      -0.237899
                                                         0.232656       0.118891
                                                         0.074788       0.020343
                          1       6    6dxz              2.521825       1.439472
                                                         1.453920      -1.228415
                                                         0.614053      -0.237899
                                                         0.232656       0.118891
                                                         0.074788       0.020343
                          1       6    6dy2              2.521825       0.831079
                                                         1.453920      -0.709226
                                                         0.614053      -0.137351
                                                         0.232656       0.068642
                                                         0.074788       0.011745
                          1       6    6dyz              2.521825       1.439472
                                                         1.453920      -1.228415
                                                         0.614053      -0.237899
                                                         0.232656       0.118891
                                                         0.074788       0.020343
                          1       6    6dz2              2.521825       0.831079
                                                         1.453920      -0.709226
                                                         0.614053      -0.137351
                                                         0.232656       0.068642
                                                         0.074788       0.011745

       Atomic covalent radius [Angstrom]:                                  1.300

       Atomic van der Waals radius [Angstrom]:                             1.750

     GTH Potential information for                                   GTH-PBE-q10

       Description:                       Goedecker-Teter-Hutter pseudopotential
                                           Goedecker et al., PRB 54, 1703 (1996)
                                          Hartwigsen et al., PRB 58, 3641 (1998)
                                                      Krack, TCA 114, 145 (2005)

       Gaussian exponent of the core charge distribution:               1.317676
       Electronic configuration (s p d ...):                           1   0   9

       Parameters of the local part of the GTH pseudopotential:

                          rloc        C1          C2          C3          C4
                        0.616000   11.313635

       Parameters of the non-local part of the GTH pseudopotential:

                   l      r(l)      h(i,j,l)

                   0    0.550904    4.733491   -1.784594
                                   -1.784594    2.303901
                   1    0.674138    2.534798   -1.778066
                                   -1.778066    2.103836
                   2    0.457392   -7.264011    2.558665
                                    2.558665   -2.901253


 MOLECULE KIND INFORMATION


 All atoms are their own molecule, skipping detailed information


 TOTAL NUMBERS AND MAXIMUM NUMBERS

  Total number of            - Atomic kinds:                                   3
                             - Atoms:                                        516
                             - Shell sets:                                   516
                             - Shells:                                      2396
                             - Primitive Cartesian functions:               2580
                             - Cartesian basis functions:                   7368
                             - Spherical basis functions:                   6620

  Maximum angular momentum of- Orbital basis functions:                        2
                             - Local part of the GTH pseudopotential:          2
                             - Non-local part of the GTH pseudopotential:      4


 MODULE QUICKSTEP:  ATOMIC COORDINATES IN angstrom

 Atom  Kind  Element       X           Y           Z          Z(eff)       Mass
    1   1 O    8       0.960000   -7.330000   29.858001       6.0000     15.9994
    2   2 H    1       1.880000   -7.610001   29.938000       1.0000      1.0079
    3   2 H    1       0.930000   -7.370000   28.828000       1.0000      1.0079
    4   1 O    8      -4.410000  -28.470001   33.128002       6.0000     15.9994
    5   2 H    1      -4.890000  -29.130001   32.648001       1.0000      1.0079
    6   2 H    1      -4.970000  -27.710001   32.908000       1.0000      1.0079
    7   1 O    8      11.770000    6.070001   30.338001       6.0000     15.9994
    8   2 H    1      11.900001    5.700001   29.418001       1.0000      1.0079
    9   2 H    1      12.500000    6.660000   30.488000       1.0000      1.0079
   10   1 O    8       6.890000   29.260002   30.458000       6.0000     15.9994
   11   2 H    1       6.410000   28.700001   31.228000       1.0000      1.0079
   12   2 H    1      14.630001   15.130001   30.078000       1.0000      1.0079
   13   1 O    8      25.860003   14.340000   39.198001       6.0000     15.9994
   14   2 H    1      24.880001   14.540001   39.488002       1.0000      1.0079
   15   2 H    1      26.280001   14.760000   39.988000       1.0000      1.0079
   16   1 O    8      12.770000   -7.160000   36.968001       6.0000     15.9994
   17   2 H    1      13.220000   -7.630000   36.228000       1.0000      1.0079
   18   2 H    1      12.880001   -6.190000   36.708001       1.0000      1.0079
   19   1 O    8      -7.820001  -30.470001   36.178001       6.0000     15.9994
   20   2 H    1      -8.200001  -30.090000   35.338001       1.0000      1.0079
   21   2 H    1      -8.510000  -30.410002   36.878002       1.0000      1.0079
   22   1 O    8      29.380001   17.020000   33.578000       6.0000     15.9994
   23   2 H    1      29.100000   17.040001   34.528001       1.0000      1.0079
   24   2 H    1      28.690002   16.500000   33.168001       1.0000      1.0079
   25   1 O    8     -13.200001    9.770000   33.398000       6.0000     15.9994
   26   2 H    1     -12.450000    9.230001   33.048001       1.0000      1.0079
   27   2 H    1     -12.830001   10.150002   34.218001       1.0000      1.0079
   28   1 O    8      25.410002    1.910000   32.918001       6.0000     15.9994
   29   2 H    1      24.660000    2.430000   32.428001       1.0000      1.0079
   30   2 H    1      25.060001    1.040000   32.888001       1.0000      1.0079
   31   1 O    8      36.380001  -28.970001   32.408000       6.0000     15.9994
   32   2 H    1      36.799999  -29.620001   33.008001       1.0000      1.0079
   33   2 H    1      52.280003  -29.040001   32.718001       1.0000      1.0079
   34   1 O    8      -0.990000  -37.860001   32.838001       6.0000     15.9994
   35   2 H    1      -1.550000  -38.430000   33.368000       1.0000      1.0079
   36   2 H    1      -0.900000  -38.290001   31.978001       1.0000      1.0079
   37   1 O    8      15.340000  -10.559999   36.108001       6.0000     15.9994
   38   2 H    1      16.090000  -10.460000   36.698001       1.0000      1.0079
   39   2 H    1      15.600000  -11.460000   35.738001       1.0000      1.0079
   40   1 O    8      -3.440000   16.440001   30.028000       6.0000     15.9994
   41   2 H    1      -3.540000   16.790001   29.108000       1.0000      1.0079
   42   2 H    1      -4.310000   16.570000   30.328000       1.0000      1.0079
   43   1 O    8       5.730000   -2.820000   36.178001       6.0000     15.9994
   44   2 H    1     -10.780001   -3.380000   36.878002       1.0000      1.0079
   45   2 H    1       5.900001   -3.280000   35.308000       1.0000      1.0079
   46   1 O    8      -0.200000   -2.400000   35.638000       6.0000     15.9994
   47   2 H    1      -0.420000   -3.030000   36.398001       1.0000      1.0079
   48   2 H    1      -0.790000   -1.630000   35.798001       1.0000      1.0079
   49   1 O    8     -22.720001  -15.310000   29.828000       6.0000     15.9994
   50   2 H    1     -22.800003  -14.700001   29.118001       1.0000      1.0079
   51   2 H    1     -22.660000  -14.950001   30.728000       1.0000      1.0079
   52   1 O    8      -1.830000    1.100000   32.778000       6.0000     15.9994
   53   2 H    1      -1.410000    1.420000   31.988000       1.0000      1.0079
   54   2 H    1      -2.810000    1.070000   32.688001       1.0000      1.0079
   55   1 O    8      29.810001    2.050000   29.228001       6.0000     15.9994
   56   2 H    1      28.840000    2.400000   29.558001       1.0000      1.0079
   57   2 H    1      13.160001    1.200000   29.588001       1.0000      1.0079
   58   1 O    8      -4.260000   11.970000   29.398001       6.0000     15.9994
   59   2 H    1      -4.550000   11.080000   29.638001       1.0000      1.0079
   60   2 H    1      -5.000000   12.720001   29.618000       1.0000      1.0079
   61   1 O    8      25.680000   14.180001   33.578000       6.0000     15.9994
   62   2 H    1      25.410002   13.520001   34.248000       1.0000      1.0079
   63   2 H    1      24.880001   14.880000   33.388002       1.0000      1.0079
   64   1 O    8      14.130001   24.300001   29.058000       6.0000     15.9994
   65   2 H    1      14.270000   23.310001   29.238000       1.0000      1.0079
   66   2 H    1      15.030001   24.630001   29.398001       1.0000      1.0079
   67   1 O    8       0.790000   -7.710000   38.308002       6.0000     15.9994
   68   2 H    1       0.890000   -8.700001   38.138002       1.0000      1.0079
   69   2 H    1       1.110000   -7.180000   37.428001       1.0000      1.0079
   70   1 O    8      -7.160000   -4.010000   36.388001       6.0000     15.9994
   71   2 H    1      -7.290000   -3.040000   36.228000       1.0000      1.0079
   72   2 H    1     -15.060000   10.450001   37.288001       1.0000      1.0079
   73   1 O    8      -2.530000   27.000000   32.508001       6.0000     15.9994
   74   2 H    1      -2.960000   27.670002   33.088001       1.0000      1.0079
   75   2 H    1      -1.640000   26.920002   32.878002       1.0000      1.0079
   76   1 O    8     -15.160000   26.430000   39.228002       6.0000     15.9994
   77   2 H    1       2.360000   26.540001   39.888002       1.0000      1.0079
   78   2 H    1     -15.740002   27.240002   39.288001       1.0000      1.0079
   79   1 O    8      16.960001  -10.120001   30.228001       6.0000     15.9994
   80   2 H    1      17.540001   -9.290000   30.068000       1.0000      1.0079
   81   2 H    1      17.580002  -10.830001   29.948001       1.0000      1.0079
   82   1 O    8      -7.250000   -5.560000   34.208000       6.0000     15.9994
   83   2 H    1      -6.360001   -5.620000   33.788001       1.0000      1.0079
   84   2 H    1      -7.150001   -5.110001   35.048002       1.0000      1.0079
   85   1 O    8       9.610001  -13.570002   36.748000       6.0000     15.9994
   86   2 H    1       9.040001  -13.790001   37.508001       1.0000      1.0079
   87   2 H    1       9.160001  -13.130001   36.008001       1.0000      1.0079
   88   1 O    8      12.620001   14.330001   38.838001       6.0000     15.9994
   89   2 H    1      11.870001   14.190001   39.458001       1.0000      1.0079
   90   2 H    1      12.180000   13.850001   38.098001       1.0000      1.0079
   91   1 O    8       6.890000   -9.100000   39.208001       6.0000     15.9994
   92   2 H    1       7.870001   -9.050000   39.488002       1.0000      1.0079
   93   2 H    1       6.760001   -8.240001   38.748000       1.0000      1.0079
   94   1 O    8     -22.390001   49.650002   30.268000       6.0000     15.9994
   95   2 H    1     -23.210001   50.150002   30.178001       1.0000      1.0079
   96   2 H    1     -21.780003   49.980003   29.528000       1.0000      1.0079
   97   1 O    8       9.530001   19.480001   39.878002       6.0000     15.9994
   98   2 H    1      10.190001   18.870001   40.378002       1.0000      1.0079
   99   2 H    1      10.140000   20.210001   39.408000       1.0000      1.0079
  100   1 O    8     -41.540001  -11.260000   32.908000       6.0000     15.9994
  101   2 H    1     -40.880005  -11.360001   32.198000       1.0000      1.0079
  102   2 H    1     -41.400002  -10.420000   33.358001       1.0000      1.0079
  103   1 O    8      12.170000   12.990000   33.918001       6.0000     15.9994
  104   2 H    1      11.840000   12.980001   34.908000       1.0000      1.0079
  105   2 H    1      11.940001   12.060001   33.628001       1.0000      1.0079
  106   1 O    8      19.950001    2.950000   36.078000       6.0000     15.9994
  107   2 H    1      10.920000   16.900002   36.588001       1.0000      1.0079
  108   2 H    1      20.500002    3.450000   36.728001       1.0000      1.0079
  109   1 O    8     -21.950001   -9.160001   33.238000       6.0000     15.9994
  110   2 H    1     -22.170000   -9.110001   32.248000       1.0000      1.0079
  111   2 H    1     -21.860001  -10.150002   33.298001       1.0000      1.0079
  112   1 O    8     -42.840004   10.660001   33.108001       6.0000     15.9994
  113   2 H    1     -42.239998   11.120001   33.788001       1.0000      1.0079
  114   2 H    1     -42.380005   10.590000   32.228001       1.0000      1.0079
  115   1 O    8      10.220001    1.030000   39.648000       6.0000     15.9994
  116   2 H    1      27.970001    1.150000   40.038001       1.0000      1.0079
  117   2 H    1      10.270000    1.490000   38.798002       1.0000      1.0079
  118   1 O    8       6.390000   35.730003   38.818000       6.0000     15.9994
  119   2 H    1       7.340000   35.779999   38.478000       1.0000      1.0079
  120   2 H    1      22.620001   35.950005   38.128002       1.0000      1.0079
  121   1 O    8      26.030003   -9.650001   36.298002       6.0000     15.9994
  122   2 H    1      26.810001  -10.250001   36.288001       1.0000      1.0079
  123   2 H    1      26.030003   -9.150001   35.368001       1.0000      1.0079
  124   1 O    8       7.410001  -18.960001   37.068000       6.0000     15.9994
  125   2 H    1       8.050001  -19.620001   36.778001       1.0000      1.0079
  126   2 H    1       7.390000  -19.000000   38.078000       1.0000      1.0079
  127   1 O    8      24.820002   -9.840000   30.698001       6.0000     15.9994
  128   2 H    1      24.820002  -10.430001   31.488000       1.0000      1.0079
  129   2 H    1      33.510002    5.700001   30.948000       1.0000      1.0079
  130   1 O    8       8.100000   10.540000   30.408000       6.0000     15.9994
  131   2 H    1      -7.860000   10.310000   30.108001       1.0000      1.0079
  132   2 H    1       8.090000   11.530000   30.398000       1.0000      1.0079
  133   1 O    8      17.030001  -15.500001   33.488001       6.0000     15.9994
  134   2 H    1       9.390000   -1.160000   32.968001       1.0000      1.0079
  135   2 H    1      16.200001  -15.840001   33.088001       1.0000      1.0079
  136   1 O    8      -4.080000    9.020000   39.298002       6.0000     15.9994
  137   2 H    1      -4.410000    9.500000   38.518001       1.0000      1.0079
  138   2 H    1      -4.880000    8.350000   39.678001       1.0000      1.0079
  139   1 O    8     -17.780001   10.240001   32.978001       6.0000     15.9994
  140   2 H    1     -17.510000   10.170001   32.068000       1.0000      1.0079
  141   2 H    1     -17.070002    9.750000   33.528001       1.0000      1.0079
  142   1 O    8     -25.470001   13.180000   30.058001       6.0000     15.9994
  143   2 H    1     -26.070002   13.460001   29.298001       1.0000      1.0079
  144   2 H    1     -24.540003   13.330001   29.778001       1.0000      1.0079
  145   1 O    8      -7.920001    4.360000   37.998000       6.0000     15.9994
  146   2 H    1      -7.210000    3.780000   37.628002       1.0000      1.0079
  147   2 H    1      -8.200001    3.700000   38.758001       1.0000      1.0079
  148   1 O    8       2.810000   -1.060000   36.678001       6.0000     15.9994
  149   2 H    1       2.460000   -0.150000   36.508001       1.0000      1.0079
  150   2 H    1       2.000000   -1.610000   36.838001       1.0000      1.0079
  151   1 O    8      -6.290000   -4.840000   38.898002       6.0000     15.9994
  152   2 H    1      -5.400000   -4.770000   39.278001       1.0000      1.0079
  153   2 H    1      -6.450000   -5.810000   38.648002       1.0000      1.0079
  154   1 O    8      20.280001   25.050001   37.138002       6.0000     15.9994
  155   2 H    1      20.950001   25.600002   36.618001       1.0000      1.0079
  156   2 H    1      19.880001   25.700001   37.768001       1.0000      1.0079
  157   1 O    8       5.210000   -4.850000   34.228001       6.0000     15.9994
  158   2 H    1       6.130000   -4.900000   33.778000       1.0000      1.0079
  159   2 H    1       5.150001   -5.750000   34.728001       1.0000      1.0079
  160   1 O    8      -3.370000   34.130001   32.448000       6.0000     15.9994
  161   2 H    1      -2.690000   34.760002   32.478000       1.0000      1.0079
  162   2 H    1      -3.770000   34.260002   31.518001       1.0000      1.0079
  163   1 O    8      14.040001   20.680000   34.898000       6.0000     15.9994
  164   2 H    1      13.340001   20.480001   34.188001       1.0000      1.0079
  165   2 H    1      14.360001   19.860001   35.368001       1.0000      1.0079
  166   1 O    8     -16.430000    9.920000   30.338001       6.0000     15.9994
  167   2 H    1     -15.450001   10.180000   30.468001       1.0000      1.0079
  168   2 H    1     -16.700001   10.360001   29.548001       1.0000      1.0079
  169   1 O    8      -7.410001   38.040001   36.258001       6.0000     15.9994
  170   2 H    1      -7.270000   37.590000   35.298002       1.0000      1.0079
  171   2 H    1      -6.750000   38.780003   36.398001       1.0000      1.0079
  172   1 O    8       3.990000   12.320002   36.458000       6.0000     15.9994
  173   2 H    1       3.470000   12.650002   37.238002       1.0000      1.0079
  174   2 H    1       3.420000   12.680000   35.718001       1.0000      1.0079
  175   1 O    8       7.370000   24.950001   37.848001       6.0000     15.9994
  176   2 H    1      16.690001   10.340000   37.328000       1.0000      1.0079
  177   2 H    1       7.100000   23.980000   37.928001       1.0000      1.0079
  178   1 O    8      14.250001    4.310000   29.008001       6.0000     15.9994
  179   2 H    1      14.030001    3.350000   29.178001       1.0000      1.0079
  180   2 H    1      15.030001    4.610000   29.508001       1.0000      1.0079
  181   1 O    8      23.330002    3.190000   32.128001       6.0000     15.9994
  182   2 H    1      22.590000    2.890000   32.658000       1.0000      1.0079
  183   2 H    1      23.070002    2.900000   31.248000       1.0000      1.0079
  184   1 O    8      19.780001   24.550001   32.808000       6.0000     15.9994
  185   2 H    1      20.470001   24.130001   33.418001       1.0000      1.0079
  186   2 H    1      19.100000   23.960001   33.148001       1.0000      1.0079
  187   1 O    8      16.480001    1.400000   30.198000       6.0000     15.9994
  188   2 H    1      16.550001    0.470000   30.278001       1.0000      1.0079
  189   2 H    1      16.570000    1.420000   29.218001       1.0000      1.0079
  190   1 O    8       2.370000  -16.000000   32.128001       6.0000     15.9994
  191   2 H    1       1.910000  -15.690001   31.258001       1.0000      1.0079
  192   2 H    1      19.760000  -16.820000   31.858000       1.0000      1.0079
  193   1 O    8       5.950000  -20.920000   33.048001       6.0000     15.9994
  194   2 H    1       6.600000  -20.220001   33.188000       1.0000      1.0079
  195   2 H    1       6.230001  -21.730001   33.538001       1.0000      1.0079
  196   1 O    8     -10.800000  -24.250002   29.128001       6.0000     15.9994
  197   2 H    1     -10.840001  -23.340000   29.408000       1.0000      1.0079
  198   2 H    1      -9.800000  -24.490002   29.268001       1.0000      1.0079
  199   1 O    8       6.410000   15.260000   39.098001       6.0000     15.9994
  200   2 H    1       5.690000   15.070001   39.708001       1.0000      1.0079
  201   2 H    1       6.430000   14.800000   38.218000       1.0000      1.0079
  202   1 O    8      -0.630000   45.459999   35.718001       6.0000     15.9994
  203   2 H    1      -1.130000   44.730000   36.138001       1.0000      1.0079
  204   2 H    1      -0.540000   45.370003   34.718000       1.0000      1.0079
  205   1 O    8       6.690001   21.570000   33.238000       6.0000     15.9994
  206   2 H    1       7.660000   21.400002   33.238000       1.0000      1.0079
  207   2 H    1       6.510000   22.260000   32.538001       1.0000      1.0079
  208   1 O    8       7.200000   16.220001   35.458000       6.0000     15.9994
  209   2 H    1       7.030000   16.540001   34.538001       1.0000      1.0079
  210   2 H    1       7.080000   17.020000   36.078000       1.0000      1.0079
  211   1 O    8      30.640001    7.150001   35.618000       6.0000     15.9994
  212   2 H    1      29.980001    6.500000   35.348001       1.0000      1.0079
  213   2 H    1      31.250002    7.160000   34.848001       1.0000      1.0079
  214   1 O    8      14.840001   28.560001   36.688001       6.0000     15.9994
  215   2 H    1      13.900002   28.290003   36.598001       1.0000      1.0079
  216   2 H    1      14.950001   29.480001   36.248001       1.0000      1.0079
  217   1 O    8     -12.190001   14.090000   30.198000       6.0000     15.9994
  218   2 H    1     -11.730001   13.570002   30.848001       1.0000      1.0079
  219   2 H    1     -12.450000   13.400001   29.528000       1.0000      1.0079
  220   1 O    8      21.160002  -10.550001   36.418001       6.0000     15.9994
  221   2 H    1      21.070002  -10.790000   37.368001       1.0000      1.0079
  222   2 H    1      22.139999  -10.350000   36.558000       1.0000      1.0079
  223   1 O    8       6.380000   -0.380000   37.188001       6.0000     15.9994
  224   2 H    1       5.690000   -0.110000   37.838001       1.0000      1.0079
  225   2 H    1       5.810000   -0.900000   36.558000       1.0000      1.0079
  226   1 O    8      -5.780000   27.610001   39.098001       6.0000     15.9994
  227   2 H    1      -6.040000   28.580000   39.128002       1.0000      1.0079
  228   2 H    1      -6.620001   27.200001   39.158002       1.0000      1.0079
  229   1 O    8     -23.930000   36.660000   33.968001       6.0000     15.9994
  230   2 H    1     -23.320000   35.910000   34.118001       1.0000      1.0079
  231   2 H    1     -24.700001   36.250004   33.468000       1.0000      1.0079
  232   1 O    8      -4.150000    2.980000   39.018001       6.0000     15.9994
  233   2 H    1      -3.190000    2.760000   38.988000       1.0000      1.0079
  234   2 H    1      -4.180000    3.690000   39.718002       1.0000      1.0079
  235   1 O    8       7.680000  -18.570002   39.858001       6.0000     15.9994
  236   2 H    1       7.450001  -17.840000   40.548002       1.0000      1.0079
  237   2 H    1       8.680000  -18.420002   39.698001       1.0000      1.0079
  238   1 O    8      32.150002   12.240001   29.278000       6.0000     15.9994
  239   2 H    1      32.389999   13.200001   29.518001       1.0000      1.0079
  240   2 H    1      31.200001   12.110001   29.328000       1.0000      1.0079
  241   1 O    8     -18.980001   12.790001   32.638001       6.0000     15.9994
  242   2 H    1     -19.820002   12.970000   33.208001       1.0000      1.0079
  243   2 H    1     -18.770000   11.830001   32.788000       1.0000      1.0079
  244   1 O    8     -12.050000    9.900001   36.048001       6.0000     15.9994
  245   2 H    1     -11.160001    9.760000   36.338001       1.0000      1.0079
  246   2 H    1     -12.370001   10.690001   36.498001       1.0000      1.0079
  247   1 O    8     -22.990000   17.390001   30.348001       6.0000     15.9994
  248   2 H    1     -23.890001   17.200001   29.998000       1.0000      1.0079
  249   2 H    1     -22.670002   18.250000   30.038000       1.0000      1.0079
  250   1 O    8      28.600002    5.200000   34.368000       6.0000     15.9994
  251   2 H    1      28.770000    4.910000   35.268001       1.0000      1.0079
  252   2 H    1      29.360001    5.110001   33.728000       1.0000      1.0079
  253   1 O    8      -4.640000    1.400000   35.978001       6.0000     15.9994
  254   2 H    1      -4.200000    2.250000   35.838002       1.0000      1.0079
  255   2 H    1      -4.790000    1.100000   35.028000       1.0000      1.0079
  256   1 O    8     -19.690001    7.670000   30.598001       6.0000     15.9994
  257   2 H    1     -19.030001    7.810000   29.888001       1.0000      1.0079
  258   2 H    1     -20.290001    8.420001   30.538000       1.0000      1.0079
  259   1 O    8      -5.460000   -3.830000   30.768001       6.0000     15.9994
  260   2 H    1      -4.880000   -4.050000   29.988000       1.0000      1.0079
  261   2 H    1      -5.130000   -4.350000   31.538000       1.0000      1.0079
  262   1 O    8       9.290000   20.920000   33.908000       6.0000     15.9994
  263   2 H    1      10.180000   20.530003   33.688001       1.0000      1.0079
  264   2 H    1       9.490001   21.920002   34.008001       1.0000      1.0079
  265   1 O    8      18.500002    6.950001   38.168001       6.0000     15.9994
  266   2 H    1      27.900002   -7.630000   37.798002       1.0000      1.0079
  267   2 H    1      18.060001    6.320000   37.548002       1.0000      1.0079
  268   1 O    8      -6.760001    2.270000   37.288001       6.0000     15.9994
  269   2 H    1      -5.920000    2.000000   36.748000       1.0000      1.0079
  270   2 H    1      -7.520000    2.080000   36.698001       1.0000      1.0079
  271   1 O    8       4.710000    4.290000   37.708000       6.0000     15.9994
  272   2 H    1       5.490000    4.070000   37.168002       1.0000      1.0079
  273   2 H    1       5.050000    4.090000   38.638002       1.0000      1.0079
  274   1 O    8     -16.270000    7.180000   30.188001       6.0000     15.9994
  275   2 H    1     -16.240002    8.160001   30.298001       1.0000      1.0079
  276   2 H    1     -16.430000    7.070000   29.198000       1.0000      1.0079
  277   1 O    8      23.340000   -6.800000   38.028001       6.0000     15.9994
  278   2 H    1      23.000002   -7.210000   37.117999       1.0000      1.0079
  279   2 H    1      22.440002   -6.520000   38.498000       1.0000      1.0079
  280   1 O    8      -2.030000   22.000000   30.228001       6.0000     15.9994
  281   2 H    1      14.680000   22.330000   31.228000       1.0000      1.0079
  282   2 H    1      15.800000   22.050001   30.208000       1.0000      1.0079
  283   1 O    8       8.460000   -2.440000   39.418001       6.0000     15.9994
  284   2 H    1       7.810000   -1.760000   39.658000       1.0000      1.0079
  285   2 H    1       8.000000   -3.140000   38.948001       1.0000      1.0079
  286   1 O    8      32.240002    3.790000   36.998000       6.0000     15.9994
  287   2 H    1      32.260002    4.240000   37.878002       1.0000      1.0079
  288   2 H    1      33.040001    4.280000   36.568001       1.0000      1.0079
  289   1 O    8      17.940001   14.730001   30.188001       6.0000     15.9994
  290   2 H    1      17.900002   14.420000   29.268001       1.0000      1.0079
  291   2 H    1      16.990002   14.780001   30.458000       1.0000      1.0079
  292   1 O    8     -13.290001  -34.430000   30.248000       6.0000     15.9994
  293   2 H    1     -13.990001  -34.860001   29.688001       1.0000      1.0079
  294   2 H    1     -13.570002  -34.270000   31.238001       1.0000      1.0079
  295   1 O    8      -6.230001   32.110001   30.108001       6.0000     15.9994
  296   2 H    1      -6.660000   31.290001   30.368001       1.0000      1.0079
  297   2 H    1      -5.940001   32.570004   31.018001       1.0000      1.0079
  298   1 O    8     -31.120003  -11.430000   32.698001       6.0000     15.9994
  299   2 H    1     -30.850000  -10.850000   33.408001       1.0000      1.0079
  300   2 H    1     -15.230001  -11.500001   32.828000       1.0000      1.0079
  301   3 Pt  78       1.670000    0.770000   15.170002      10.0000    195.0840
  302   3 Pt  78       4.480000    0.680000   15.150002      10.0000    195.0840
  303   3 Pt  78       7.260000    0.660000   15.040001      10.0000    195.0840
  304   3 Pt  78      10.220001    0.740000   15.440002      10.0000    195.0840
  305   3 Pt  78      13.040000    0.720000   15.260002      10.0000    195.0840
  306   3 Pt  78      15.770000    0.720000   15.000000      10.0000    195.0840
  307   3 Pt  78       3.090000    3.100000   15.210003      10.0000    195.0840
  308   3 Pt  78       5.920000    3.100000   15.250004      10.0000    195.0840
  309   3 Pt  78       8.690001    3.050000   15.390003      10.0000    195.0840
  310   3 Pt  78      11.610001    3.290000   15.470001      10.0000    195.0840
  311   3 Pt  78      14.370001    3.220000   15.180004      10.0000    195.0840
  312   3 Pt  78       0.300000    3.140000   15.410004      10.0000    195.0840
  313   3 Pt  78       4.480000    5.500000   15.270000      10.0000    195.0840
  314   3 Pt  78       7.230001    5.510000   15.340004      10.0000    195.0840
  315   3 Pt  78      10.000000    5.620000   15.320004      10.0000    195.0840
  316   3 Pt  78      13.140000    5.640000   15.430000      10.0000    195.0840
  317   3 Pt  78      -0.960000    5.600000   15.350002      10.0000    195.0840
  318   3 Pt  78       1.790000    5.520000   15.180004      10.0000    195.0840
  319   3 Pt  78       5.960000    8.030001   15.240002      10.0000    195.0840
  320   3 Pt  78       8.690001    7.980001   15.160000      10.0000    195.0840
  321   3 Pt  78      11.580001    8.160001   15.210003      10.0000    195.0840
  322   3 Pt  78      -2.340000    8.050001   15.430000      10.0000    195.0840
  323   3 Pt  78       0.360000    8.040000   15.350002      10.0000    195.0840
  324   3 Pt  78       3.240000    7.950000   15.250004      10.0000    195.0840
  325   3 Pt  78       7.450001   10.550001   15.350002      10.0000    195.0840
  326   3 Pt  78      10.230000   10.500001   15.160000      10.0000    195.0840
  327   3 Pt  78      -3.830000   10.559999   15.200001      10.0000    195.0840
  328   3 Pt  78      -1.040000   10.520000   15.200001      10.0000    195.0840
  329   3 Pt  78       1.870000   10.400001   15.360001      10.0000    195.0840
  330   3 Pt  78       4.470000   10.520000   15.360001      10.0000    195.0840
  331   3 Pt  78       8.660001   12.990000   15.299999      10.0000    195.0840
  332   3 Pt  78      -5.500000   12.850000   15.120003      10.0000    195.0840
  333   3 Pt  78      -2.490000   12.900001   15.100002      10.0000    195.0840
  334   3 Pt  78       0.320000   12.860001   15.369999      10.0000    195.0840
  335   3 Pt  78       3.070000   12.920000   15.299999      10.0000    195.0840
  336   3 Pt  78       5.860000   12.960000   15.150002      10.0000    195.0840
  337   3 Pt  78       0.270000    1.520000   17.530003      10.0000    195.0840
  338   3 Pt  78       3.150000    1.610000   17.480003      10.0000    195.0840
  339   3 Pt  78       5.910000    1.520000   17.650002      10.0000    195.0840
  340   3 Pt  78       8.610001    1.470000   17.670002      10.0000    195.0840
  341   3 Pt  78      11.470001    1.520000   17.660000      10.0000    195.0840
  342   3 Pt  78      14.210001    1.480000   17.600002      10.0000    195.0840
  343   3 Pt  78       1.660000    4.000000   17.650002      10.0000    195.0840
  344   3 Pt  78       4.490000    4.040000   17.560001      10.0000    195.0840
  345   3 Pt  78       7.320001    3.970000   17.680004      10.0000    195.0840
  346   3 Pt  78      10.090000    3.980000   17.700001      10.0000    195.0840
  347   3 Pt  78      12.880001    3.950000   17.740002      10.0000    195.0840
  348   3 Pt  78      -1.240000    4.000000   17.600002      10.0000    195.0840
  349   3 Pt  78       3.030000    6.340000   17.480003      10.0000    195.0840
  350   3 Pt  78       5.870000    6.400001   17.630001      10.0000    195.0840
  351   3 Pt  78       8.780001    6.400001   17.590000      10.0000    195.0840
  352   3 Pt  78      11.500001    6.380000   17.639999      10.0000    195.0840
  353   3 Pt  78      -2.580000    6.390000   17.810001      10.0000    195.0840
  354   3 Pt  78       0.260000    6.420000   17.620003      10.0000    195.0840
  355   3 Pt  78       4.460000    8.790001   17.710003      10.0000    195.0840
  356   3 Pt  78       7.280001    8.780001   17.620003      10.0000    195.0840
  357   3 Pt  78      10.100000    8.860001   17.430000      10.0000    195.0840
  358   3 Pt  78      -3.950000    8.780001   17.630001      10.0000    195.0840
  359   3 Pt  78      -1.060000    8.890000   17.580002      10.0000    195.0840
  360   3 Pt  78       1.700000    8.810000   17.620003      10.0000    195.0840
  361   3 Pt  78       5.800000   11.410000   17.639999      10.0000    195.0840
  362   3 Pt  78       8.610001   11.360001   17.590000      10.0000    195.0840
  363   3 Pt  78      -5.410000   11.300000   17.490002      10.0000    195.0840
  364   3 Pt  78      -2.490000   11.340000   17.580002      10.0000    195.0840
  365   3 Pt  78       0.310000   11.300000   17.639999      10.0000    195.0840
  366   3 Pt  78       3.030000   11.290001   17.750004      10.0000    195.0840
  367   3 Pt  78       7.270000   13.780001   17.630001      10.0000    195.0840
  368   3 Pt  78      -6.640000   13.700001   17.470001      10.0000    195.0840
  369   3 Pt  78      -3.960000   13.760000   17.520000      10.0000    195.0840
  370   3 Pt  78      -1.200000   13.800001   17.370003      10.0000    195.0840
  371   3 Pt  78       1.630000   13.720001   17.670002      10.0000    195.0840
  372   3 Pt  78       4.420000   13.750001   17.590000      10.0000    195.0840
  373   3 Pt  78      -8.280001   14.550000   19.850002      10.0000    195.0840
  374   3 Pt  78      -5.480001   14.540001   19.820004      10.0000    195.0840
  375   3 Pt  78      -2.620000   14.480001   19.890003      10.0000    195.0840
  376   3 Pt  78       0.110000   14.380001   19.880001      10.0000    195.0840
  377   3 Pt  78       3.030000   14.470000   20.020000      10.0000    195.0840
  378   3 Pt  78       5.810000   14.570000   20.060005      10.0000    195.0840
  379   3 Pt  78       1.590000    2.400000   19.850002      10.0000    195.0840
  380   3 Pt  78       4.410000    2.390000   19.920002      10.0000    195.0840
  381   3 Pt  78       7.270000    2.350000   20.000004      10.0000    195.0840
  382   3 Pt  78      10.020000    2.190000   19.920002      10.0000    195.0840
  383   3 Pt  78      12.920000    2.300000   20.000004      10.0000    195.0840
  384   3 Pt  78      -1.150000    2.240000   19.970001      10.0000    195.0840
  385   3 Pt  78       3.100000    4.840000   19.920002      10.0000    195.0840
  386   3 Pt  78       5.910000    4.830000   19.910000      10.0000    195.0840
  387   3 Pt  78       8.740000    4.800000   20.010002      10.0000    195.0840
  388   3 Pt  78      11.360001    4.740000   20.020000      10.0000    195.0840
  389   3 Pt  78      -2.610000    4.740000   20.040001      10.0000    195.0840
  390   3 Pt  78       0.200000    4.730000   19.920002      10.0000    195.0840
  391   3 Pt  78       4.420000    7.240000   19.950001      10.0000    195.0840
  392   3 Pt  78       7.230001    7.230001   19.930004      10.0000    195.0840
  393   3 Pt  78       9.970000    7.350000   19.910000      10.0000    195.0840
  394   3 Pt  78      -4.100000    7.190001   19.910000      10.0000    195.0840
  395   3 Pt  78      -1.220000    7.190001   19.960003      10.0000    195.0840
  396   3 Pt  78       1.600000    7.100000   19.940002      10.0000    195.0840
  397   3 Pt  78       5.840001    9.700001   19.950001      10.0000    195.0840
  398   3 Pt  78       8.660001    9.660000   19.810001      10.0000    195.0840
  399   3 Pt  78      -5.400000    9.680000   19.840000      10.0000    195.0840
  400   3 Pt  78      -2.570000    9.550000   19.930004      10.0000    195.0840
  401   3 Pt  78       0.280000    9.570000   19.970001      10.0000    195.0840
  402   3 Pt  78       2.940000    9.660000   20.030003      10.0000    195.0840
  403   3 Pt  78       7.200000   12.160001   20.000004      10.0000    195.0840
  404   3 Pt  78      -6.920000   12.120000   19.810001      10.0000    195.0840
  405   3 Pt  78      -4.000000   12.070000   19.910000      10.0000    195.0840
  406   3 Pt  78      -1.240000   12.000000   19.930004      10.0000    195.0840
  407   3 Pt  78       1.540000   12.050000   20.040001      10.0000    195.0840
  408   3 Pt  78       4.400000   12.150001   19.970001      10.0000    195.0840
  409   3 Pt  78       1.580000    0.770000   22.128000      10.0000    195.0840
  410   3 Pt  78       4.420000    0.600000   22.088000      10.0000    195.0840
  411   3 Pt  78       7.180000    0.660000   22.268000      10.0000    195.0840
  412   3 Pt  78       9.900001    0.730000   22.328000      10.0000    195.0840
  413   3 Pt  78      12.750001    0.640000   22.348000      10.0000    195.0840
  414   3 Pt  78      15.530001    0.710000   22.258000      10.0000    195.0840
  415   3 Pt  78       3.100000    3.060000   22.238000      10.0000    195.0840
  416   3 Pt  78       5.770000    3.190000   22.258000      10.0000    195.0840
  417   3 Pt  78       8.580000    3.240000   22.238000      10.0000    195.0840
  418   3 Pt  78      11.400002    3.020000   22.218000      10.0000    195.0840
  419   3 Pt  78      14.150001    3.110000   22.338000      10.0000    195.0840
  420   3 Pt  78       0.140000    3.000000   22.228000      10.0000    195.0840
  421   3 Pt  78       4.380000    5.610001   22.248000      10.0000    195.0840
  422   3 Pt  78       7.180000    5.700001   22.218000      10.0000    195.0840
  423   3 Pt  78       9.970000    5.640000   22.298000      10.0000    195.0840
  424   3 Pt  78      12.770000    5.500000   22.248000      10.0000    195.0840
  425   3 Pt  78      -1.230000    5.500000   22.188000      10.0000    195.0840
  426   3 Pt  78       1.610000    5.490000   22.198000      10.0000    195.0840
  427   3 Pt  78       5.810000    8.130000   22.178000      10.0000    195.0840
  428   3 Pt  78       8.630000    8.090000   22.268000      10.0000    195.0840
  429   3 Pt  78      11.420001    8.010000   22.198000      10.0000    195.0840
  430   3 Pt  78      -2.680000    7.890000   22.248000      10.0000    195.0840
  431   3 Pt  78       0.150000    7.920001   22.268000      10.0000    195.0840
  432   3 Pt  78       2.980000    7.960001   22.218000      10.0000    195.0840
  433   3 Pt  78       7.210000   10.530001   22.198000      10.0000    195.0840
  434   3 Pt  78       9.970000   10.450001   22.058000      10.0000    195.0840
  435   3 Pt  78      -4.020000   10.370001   22.128000      10.0000    195.0840
  436   3 Pt  78      -1.260000   10.330000   22.268000      10.0000    195.0840
  437   3 Pt  78       1.490000   10.440001   22.378000      10.0000    195.0840
  438   3 Pt  78       4.360000   10.450001   22.258000      10.0000    195.0840
  439   3 Pt  78       8.570001   12.930001   22.248000      10.0000    195.0840
  440   3 Pt  78      -5.540000   12.850000   21.948000      10.0000    195.0840
  441   3 Pt  78      -2.660000   12.810000   22.278000      10.0000    195.0840
  442   3 Pt  78       0.080000   12.820001   22.278000      10.0000    195.0840
  443   3 Pt  78       2.890000   12.860001   22.348000      10.0000    195.0840
  444   3 Pt  78       5.730000   12.860001   22.338000      10.0000    195.0840
  445   3 Pt  78       0.120000    1.310000   24.578000      10.0000    195.0840
  446   3 Pt  78       2.960000    1.300000   24.478000      10.0000    195.0840
  447   3 Pt  78       5.760000    1.540000   24.468000      10.0000    195.0840
  448   3 Pt  78       8.580000    1.570000   24.588000      10.0000    195.0840
  449   3 Pt  78      11.330000    1.490000   24.498000      10.0000    195.0840
  450   3 Pt  78      14.100000    1.490000   24.668000      10.0000    195.0840
  451   3 Pt  78       1.530000    3.830000   24.458000      10.0000    195.0840
  452   3 Pt  78       4.370000    3.900000   24.518000      10.0000    195.0840
  453   3 Pt  78       7.120000    3.940000   24.628000      10.0000    195.0840
  454   3 Pt  78       9.900001    3.990000   24.478000      10.0000    195.0840
  455   3 Pt  78      12.720001    4.010000   24.578000      10.0000    195.0840
  456   3 Pt  78      -1.150000    3.840000   24.608000      10.0000    195.0840
  457   3 Pt  78       3.010000    6.280000   24.478000      10.0000    195.0840
  458   3 Pt  78       5.810000    6.410000   24.468000      10.0000    195.0840
  459   3 Pt  78       8.530001    6.350000   24.638000      10.0000    195.0840
  460   3 Pt  78      11.460000    6.410000   24.638000      10.0000    195.0840
  461   3 Pt  78      -2.510000    6.340000   24.558000      10.0000    195.0840
  462   3 Pt  78       0.220000    6.220000   24.528000      10.0000    195.0840
  463   3 Pt  78       4.410000    8.910000   24.508000      10.0000    195.0840
  464   3 Pt  78       7.190001    8.860001   24.578000      10.0000    195.0840
  465   3 Pt  78      10.090000    8.720000   24.568000      10.0000    195.0840
  466   3 Pt  78      -3.890000    8.620001   24.538000      10.0000    195.0840
  467   3 Pt  78      -1.310000    8.760000   24.658000      10.0000    195.0840
  468   3 Pt  78       1.470000    8.790001   24.588000      10.0000    195.0840
  469   3 Pt  78       5.820000   11.280001   24.578000      10.0000    195.0840
  470   3 Pt  78       8.660001   11.270000   24.478000      10.0000    195.0840
  471   3 Pt  78      -5.450000   11.230000   24.398000      10.0000    195.0840
  472   3 Pt  78      -2.640000   11.240001   24.588000      10.0000    195.0840
  473   3 Pt  78       0.040000   11.260000   24.648000      10.0000    195.0840
  474   3 Pt  78       2.830000   11.170001   24.548000      10.0000    195.0840
  475   3 Pt  78       7.190001   13.620001   24.598000      10.0000    195.0840
  476   3 Pt  78      -6.800000   13.630000   24.408000      10.0000    195.0840
  477   3 Pt  78      -4.050000   13.670001   24.478000      10.0000    195.0840
  478   3 Pt  78      -1.260000   13.710001   24.558000      10.0000    195.0840
  479   3 Pt  78       1.390000   13.620001   24.528000      10.0000    195.0840
  480   3 Pt  78       4.280000   13.660001   24.618000      10.0000    195.0840
  481   3 Pt  78      -8.230000   14.490002   26.838001      10.0000    195.0840
  482   3 Pt  78      -5.520000   14.520000   26.768001      10.0000    195.0840
  483   3 Pt  78      -2.660000   14.510001   26.858001      10.0000    195.0840
  484   3 Pt  78       0.230000   14.580001   26.848000      10.0000    195.0840
  485   3 Pt  78       3.010000   14.470000   26.878001      10.0000    195.0840
  486   3 Pt  78       5.860000   14.440001   26.868000      10.0000    195.0840
  487   3 Pt  78       1.640000    2.290000   26.788000      10.0000    195.0840
  488   3 Pt  78       4.420000    2.250000   26.748000      10.0000    195.0840
  489   3 Pt  78       7.190001    2.380000   27.118000      10.0000    195.0840
  490   3 Pt  78      10.030001    2.470000   26.858001      10.0000    195.0840
  491   3 Pt  78      12.730000    2.350000   26.978000      10.0000    195.0840
  492   3 Pt  78      -1.280000    2.250000   26.938000      10.0000    195.0840
  493   3 Pt  78       2.940000    4.630000   26.818001      10.0000    195.0840
  494   3 Pt  78       5.680000    4.650001   26.938000      10.0000    195.0840
  495   3 Pt  78       8.580000    4.880000   26.978000      10.0000    195.0840
  496   3 Pt  78      11.300000    4.830000   26.998000      10.0000    195.0840
  497   3 Pt  78      -2.770000    4.840000   26.898000      10.0000    195.0840
  498   3 Pt  78       0.190000    4.600000   26.888000      10.0000    195.0840
  499   3 Pt  78       4.260000    7.230001   26.738000      10.0000    195.0840
  500   3 Pt  78       7.030000    7.220001   26.788000      10.0000    195.0840
  501   3 Pt  78       9.980000    7.220001   26.948000      10.0000    195.0840
  502   3 Pt  78      -4.030000    7.300000   26.918001      10.0000    195.0840
  503   3 Pt  78      -1.230000    7.130001   27.018000      10.0000    195.0840
  504   3 Pt  78       1.620000    7.130001   26.868000      10.0000    195.0840
  505   3 Pt  78       5.820000    9.710001   26.838001      10.0000    195.0840
[...]
 flops    13 x    32 x    13           5918190720       0.0%    100.0%      0.0%
 flops    13 x    13 x   124           6272340360       0.0%    100.0%      0.0%
 flops     5 x     5 x    96           6367046400       0.0%    100.0%      0.0%
 flops    13 x     5 x    96           8081124480       0.0%    100.0%      0.0%
 flops     5 x    13 x    96           8098421760       0.0%    100.0%      0.0%
 flops    13 x    32 x    20           8228929280       0.0%    100.0%      0.0%
 flops    20 x    32 x    13           8228929280       0.0%    100.0%      0.0%
 flops    20 x    13 x   124           8622007680       0.0%    100.0%      0.0%
 flops    13 x    20 x   124           8628391200       0.0%    100.0%      0.0%
 flops    20 x    32 x     5           8896825600       0.0%    100.0%      0.0%
 flops     5 x    32 x    20           8896825600       0.0%    100.0%      0.0%
 flops    20 x     5 x   124           9319939200       0.0%    100.0%      0.0%
 flops     5 x    20 x   124           9330578400       0.0%    100.0%      0.0%
 flops    13 x    13 x    96           9712010880       0.0%    100.0%      0.0%
 flops    20 x    13 x    96          13350205440       0.0%    100.0%      0.0%
 flops    13 x    20 x    96          13360089600       0.0%    100.0%      0.0%
 flops    20 x     5 x    96          14430873600       0.0%    100.0%      0.0%
 flops     5 x    20 x    96          14447347200       0.0%    100.0%      0.0%
 flops     5 x     5 x   128          55181068800       0.0%    100.0%      0.0%
 flops    13 x     5 x   128          70036412160       0.0%    100.0%      0.0%
 flops     5 x    13 x   128          70186321920       0.0%    100.0%      0.0%
 flops    20 x    32 x    20          72858009600       0.0%    100.0%      0.0%
 flops    20 x    20 x   124          76720089600       0.0%    100.0%      0.0%
 flops    13 x    13 x   128          84170760960       0.0%    100.0%      0.0%
 flops    20 x    13 x   128         115701780480       0.0%    100.0%      0.0%
 flops    13 x    20 x   128         115787443200       0.0%    100.0%      0.0%
 flops    20 x    20 x    96         118792396800       0.0%    100.0%      0.0%
 flops    20 x     5 x   128         125067571200       0.0%    100.0%      0.0%
 flops     5 x    20 x   128         125210342400       0.0%    100.0%      0.0%
 flops    20 x    20 x   128        1029534105600       0.0%    100.0%      0.0%
 flops inhomo. stacks                           0       0.0%      0.0%      0.0%
 flops total                         2.259691E+12       0.0%    100.0%      0.0%
 flops max/rank                     20.780859E+09       0.0%    100.0%      0.0%
 matmuls inhomo. stacks                         0       0.0%      0.0%      0.0%
 matmuls total                           64260424       0.0%    100.0%      0.0%
 number of processed stacks                626953       0.0%    100.0%      0.0%
 average stack size                                     0.0     102.5       0.0
 marketing flops                     4.630049E+12
 -------------------------------------------------------------------------------
 # multiplications                             34
 max memory usage/rank               1.602073E+09
 # max total images/rank                        2
 # max 3D layers                                1
 # MPI messages exchanged                  126208
 MPI messages size (bytes):
  total size                        80.763601E+09
  min size                         276.480000E+03
  max size                           2.192264E+06
  average size                     639.924562E+03
 MPI breakdown and total messages size (bytes):
             size <=      128                   0                        0
       128 < size <=     8192                   0                        0
      8192 < size <=    32768                   0                        0
     32768 < size <=   131072                   0                        0
    131072 < size <=  4194304              126208              80763597600
   4194304 < size <= 16777216                   0                        0
  16777216 < size                               0                        0
 -------------------------------------------------------------------------------

 *** WARNING in dbcsr_mm.F:290 :: Using a non-square number of MPI ranks ***
 *** might lead to poor performance. Used ranks: 128 Suggested: 121 256  ***

 -------------------------------------------------------------------------------
 -                                                                             -
 -                      DBCSR MESSAGE PASSING PERFORMANCE                      -
 -                                                                             -
 -------------------------------------------------------------------------------
 ROUTINE             CALLS      AVE VOLUME [Bytes]
 MP_Bcast               46                     12.
 MP_Allreduce          341                     13.
 MP_Alltoall           945                 568185.
 MP_ISend             2176                 302927.
 MP_IRecv             2176                 296536.
 -------------------------------------------------------------------------------

 -------------------------------------------------------------------------------
 -                                                                             -
 -                                DBM STATISTICS                               -
 -                                                                             -
 -------------------------------------------------------------------------------
    M  x    N  x    K                                          COUNT     PERCENT
 -------------------------------------------------------------------------------

 -------------------------------------------------------------------------------
 -                                                                             -
 -                                GRID STATISTICS                              -
 -                                                                             -
 -------------------------------------------------------------------------------
 LP    KERNEL             BACKEND                              COUNT     PERCENT
 4     collocate general  REF                               12941664      22.13%
 4     integrate general  REF                               12816285      21.92%
 3     collocate general  REF                                8929536      15.27%
 3     integrate general  REF                                8876648      15.18%
 2     collocate general  REF                                7237120      12.38%
 2     integrate general  REF                                7010960      11.99%
 5     integrate general  REF                                 404427       0.69%
 0     collocate general  REF                                 132096       0.23%
 0     integrate general  REF                                  66048       0.11%
 1     integrate general  REF                                  66048       0.11%
 -------------------------------------------------------------------------------

 MEMORY| Estimated peak process memory [MiB]                                1780

 -------------------------------------------------------------------------------
 ----                             MULTIGRID INFO                            ----
 -------------------------------------------------------------------------------
 count for grid        1:        1096206          cutoff [a.u.]          200.00
 count for grid        2:        1090879          cutoff [a.u.]           66.67
 count for grid        3:         715071          cutoff [a.u.]           22.22
 count for grid        4:         552809          cutoff [a.u.]            7.41
 total gridlevel count  :        3454965

 -------------------------------------------------------------------------------
 -                                                                             -
 -                         MESSAGE PASSING PERFORMANCE                         -
 -                                                                             -
 -------------------------------------------------------------------------------

 ROUTINE             CALLS      AVE VOLUME [Bytes]
 MP_Group                4
 MP_Bcast             2188                 308576.
 MP_Allreduce         3249                  33387.
 MP_Sync                70
 MP_Alltoall          1942               16831323.
 MP_SendRecv           508                   6060.
 MP_ISendRecv        16256                  61740.
 MP_Wait             28916
 MP_comm_split          33
 MP_ISend            11936                 256234.
 MP_IRecv            11936                 256234.
 MP_Recv               122                1694720.
 MP_Write_All            3                1797408.
 -------------------------------------------------------------------------------


 -------------------------------------------------------------------------------
 -                                                                             -
 -                           R E F E R E N C E S                               -
 -                                                                             -
 -------------------------------------------------------------------------------
 
 CP2K version 2022.1, the CP2K developers group (2022).
 CP2K is freely available from https://www.cp2k.org/ .

 Kuehne,Thomas D.; Iannuzzi,Marcella; Del Ben,Mauro;
 Rybkin,Vladimir V.; Seewald,Patrick; Stein,Frederick; Laino,Teodoro;
 Khaliullin,Rustam Z.; Schuett,Ole; Schiffmann,Florian; Golze,Dorothea;
 Wilhelm,Jan; Chulkov,Sergey; Bani-Hashemian,Mohammad Hossein;
 Weber,Valery; Borstnik,Urban; Taillefumier,Mathieu;
 Jakobovits,Alice Shoshana; Lazzaro,Alfio; Pabst,Hans; Mueller,Tiziano;
 Schade,Robert; Guidon,Manuel; Andermatt,Samuel; Holmberg,Nico;
 Schenter,Gregory K.; Hehn,Anna; Bussy,Augustin; Belleflamme,Fabian;
 Tabacchi,Gloria; Gloess,Andreas; Lass,Michael; Bethune,Iain;
 Mundy,Christopher J.; Plessl,Christian; Watkins,Matt;
 VandeVondele,Joost; Krack,Matthias; Hutter,Juerg. 
 The Journal of Chemical Physics, 152 (19), (2020). 
 CP2K: An electronic structure and molecular dynamics software package -
 Quickstep: Efficient and accurate electronic structure calculations.
 https://doi.org/10.1063/5.0007045

 Goerigk, Lars; Hansen, Andreas; Bauer, Christoph; Ehrlich, Stephan;
 Najibi, Asim; Grimme, Stefan. , 19 (48), (2017). 
 A look at the density functional theory zoo with the advanced GMTKN55 database
 for general main group thermochemistry, kinetics and noncovalent interactions.
 https://doi.org/10.1039/C7CP04913G

 Bani-Hashemian, MH; Bruck, S; Luisier, M; VandeVondele, J. 
 JOURNAL OF CHEMICAL PHYSICS, 144 (4), 044113 (2016). 
 A generalized Poisson solver for first-principles device simulations.
 https://doi.org/10.1063/1.4940796

 Schuett, Ole; Messmer, Peter; Hutter, Juerg; VandeVondele, Joost. 
 Electronic Structure Calculations on Graphics Processing Units, John
 Wiley & Sons, Ltd, 173-190 (2016). 
 GPU-Accelerated Sparse Matrix-Matrix Multiplication for
 Linear Scaling Density Functional Theory.
 https://doi.org/10.1002/9781118670712.ch8

 Heinecke, A; Henry, G; Hutchinson, M; Pabst, H. 
 Proceedings of Intl. Supercomputing Conference, 981-991 (2016). 
 LIBXSMM: Accelerating Small Matrix Multiplications
 by Runtime Code Generation.
 https://doi.org/10.1109/SC.2016.83

 Borstnik, U; VandeVondele, J; Weber, V; Hutter, J. 
 PARALLEL COMPUTING, 40 (5-6), 47-58 (2014). 
 Sparse matrix multiplication: The distributed block-compressed sparse
 row library.
 https://doi.org/10.1016/j.parco.2014.03.012

 Hutter, J; Iannuzzi, M; Schiffmann, F; VandeVondele, J. 
 WIREs Comput Mol Sci., 4 (1), 15-25 (2014). 
 CP2K: atomistic simulations of condensed matter systems.
 https://doi.org/10.1002/wcms.1159

 Marek, A; Blum, V; Johanni, R; Havu, V; Lang, B; Auckenthaler, T;
 Heinecke, A; Bungartz, H; Lederer, H. 
 Journal of Physics: Condensed Matter, 26 (21), (2014). 
 The ELPA library: scalable parallel eigenvalue solutions for
 electronic structure
 theory and computational science.
 https://doi.org/10.1088/0953-8984/26/21/213201

 Grimme, S; Ehrlich, S; Goerigk, L. 
 JOURNAL OF COMPUTATIONAL CHEMISTRY, 32, 1456 (2011). 
 Effect of the damping function in dispersion corrected density functional theory.
 https://doi.org/10.1002/jcc.21759

 Grimme, S; Antony, J; Ehrlich, S; Krieg, H. 
 JOURNAL OF CHEMICAL PHYSICS, 132 (15), 154104 (2010). 
 A consistent and accurate ab initio parametrization of density
 functional dispersion correction (DFT-D) for the 94 elements H-Pu.
 https://doi.org/10.1063/1.3382344

 VandeVondele, J; Hutter, J. 
 JOURNAL OF CHEMICAL PHYSICS, 127 (11), 114105 (2007). 
 Gaussian basis sets for accurate calculations on molecular systems in
 gas and condensed phases.
 https://doi.org/10.1063/1.2770708

 Krack, M. 
 THEORETICAL CHEMISTRY ACCOUNTS, 114 (1-3), 145-152 (2005). 
 Pseudopotentials for H to Kr optimized for gradient-corrected
 exchange-correlation functionals.
 https://doi.org/10.1007/s00214-005-0655-y

 VandeVondele, J; Krack, M; Mohamed, F; Parrinello, M; Chassaing, T;
 Hutter, J. COMPUTER PHYSICS COMMUNICATIONS, 167 (2), 103-128 (2005). 
 QUICKSTEP: Fast and accurate density functional calculations using a
 mixed Gaussian and plane waves approach.
 https://doi.org/10.1016/j.cpc.2004.12.014

 Frigo, M; Johnson, SG. 
 PROCEEDINGS OF THE IEEE, 93 (2), 216-231 (2005). 
 The design and implementation of FFTW3.
 https://doi.org/10.1109/JPROC.2004.840301

 Hartwigsen, C; Goedecker, S; Hutter, J. 
 PHYSICAL REVIEW B, 58 (7), 3641-3662 (1998). 
 Relativistic separable dual-space Gaussian pseudopotentials from H to Rn.
 https://doi.org/10.1103/PhysRevB.58.3641

 Lippert, G; Hutter, J; Parrinello, M. 
 MOLECULAR PHYSICS, 92 (3), 477-487 (1997). 
 A hybrid Gaussian and plane wave density functional scheme.
 https://doi.org/10.1080/002689797170220

 Perdew, JP; Burke, K; Ernzerhof, M. 
 PHYSICAL REVIEW LETTERS, 77 (18), 3865-3868 (1996). 
 Generalized gradient approximation made simple.
 https://doi.org/10.1103/PhysRevLett.77.3865

 Goedecker, S; Teter, M; Hutter, J. 
 PHYSICAL REVIEW B, 54 (3), 1703-1710 (1996). 
 Separable dual-space Gaussian pseudopotentials.
 https://doi.org/10.1103/PhysRevB.54.1703


 -------------------------------------------------------------------------------
 -                                                                             -
 -                                T I M I N G                                  -
 -                                                                             -
 -------------------------------------------------------------------------------
 SUBROUTINE                       CALLS  ASD         SELF TIME        TOTAL TIME
                                MAXIMUM       AVERAGE  MAXIMUM  AVERAGE  MAXIMUM
 CP2K                                 1  1.0    0.030    0.042  230.069  230.071
 qs_forces                            1  2.0    0.002    0.002  229.565  229.567
 qs_energies                          1  3.0    0.000    0.000  223.297  223.301
 scf_env_do_scf                       1  4.0    0.000    0.000  213.766  213.904
 scf_env_do_scf_inner_loop           31  5.0    0.002    0.004  213.762  213.901
 rebuild_ks_matrix                   32  6.9    0.000    0.000  116.232  116.252
 qs_ks_build_kohn_sham_matrix        32  7.9    0.005    0.007  116.232  116.252
 qs_ks_update_qs_env                 31  6.0    0.000    0.000  112.147  112.166
 pw_transfer                       1668 12.2    0.120    0.154   73.180   74.708
 fft_wrap_pw1pw2                   1668 13.2    0.016    0.019   73.060   74.554
 fft_wrap_pw1pw2_200               1476 14.4    4.904    5.821   72.072   73.504
 pw_poisson_solve                    32  8.9    0.003    0.008   62.463   62.491
 qs_scf_new_mos                      31  6.0    0.002    0.005   60.875   60.988
 fft3d_ps                          1668 15.2   21.018   23.471   58.834   60.971
 implicit_poisson_solver_mixed_      32  9.9    1.322    1.621   58.989   59.044
 eigensolver                         31  7.0    0.003    0.004   57.498   57.664
 derive_fft                         192 12.1    0.012    0.014   41.359   41.465
 cp_fm_diag_elpa                     33  8.1    0.000    0.001   40.791   40.899
 cp_fm_redistribute_end              33  9.1    5.510   40.391    5.583   40.430
 cp_fm_diag_elpa_base                33  9.0   34.317   39.417   34.649   39.784
 mp_alltoall_z22v                  1668 17.2   31.686   39.256   31.686   39.256
 qs_rho_update_rho_low               32  6.0    0.000    0.000   36.641   36.652
 calculate_rho_elec                  32  7.0    0.062    0.077   36.641   36.652
 sum_up_and_integrate                32  8.9    0.174    0.213   35.905   35.926
 integrate_v_rspace                  32  9.9    0.001    0.002   35.732   35.801
 apply_P_operator                   160 11.1    0.852    0.944   35.371   35.464
 grid_collocate_task_list            32  8.0   23.186   29.015   23.186   29.015
 grid_integrate_task_list            32 10.9   21.577   26.275   21.577   26.275
 x_to_yz                            961 16.4    4.080    5.181   23.871   25.102
 rs_pw_transfer                     260 10.4    0.003    0.004   16.707   19.226
 cp_fm_triangular_multiply           93  8.0   18.275   18.467   18.275   18.467
 yz_to_x                            515 16.4    1.405    1.651   13.177   17.870
 qs_vxc_create                       32  8.9    0.001    0.001   15.964   16.160
 xc_vxc_pw_create                    32  9.9    0.273    0.338   15.963   16.159
 density_rs2pw                       32  8.0    0.002    0.002   12.710   15.311
 xc_pw_derive                       192 11.9    0.003    0.004   11.296   12.495
 apply_poisson_operator_fft          32 10.9    0.000    0.000   10.372   10.546
 rs_pw_transfer_RS2PW_200            34  9.9    2.234    2.474    7.944   10.448
 mp_waitany                       11936 12.3    7.782   10.383    7.782   10.383
 apply_inv_laplace_operator_fft      98 11.6    0.242    0.269    9.565    9.939
 potential_pw2rs                     32 10.9    0.009    0.010    9.089    9.160
 mp_alltoall_d11v                   470 10.3    6.030    8.685    6.030    8.685
 xc_pw_divergence                    32 10.9    0.001    0.002    7.640    8.549
 xc_rho_set_and_dset_create          32 10.9    0.159    0.185    7.755    8.454
 rs_gather_matrices                  32 10.9    0.039    0.048    5.053    7.604
 ps_implicit_compute_error_fft       64 10.9    0.402    0.492    6.989    7.478
 ps_implicit_compute_veps            32 10.9    0.185    0.223    7.028    7.148
 pw_scatter_p                      1057 15.3    5.919    6.894    5.919    6.894
 scf_post_calculation_gpw             1  4.0    0.000    0.001    5.927    5.933
 write_available_results              1  5.0    0.000    0.000    5.926    5.932
 rs_pw_transfer_PW2RS_200            34 12.6    2.570    2.691    5.368    5.503
 pw_derive                          768 13.0    4.882    5.341    4.882    5.341
 gspace_mixing                       30  6.0    0.057    0.071    5.033    5.034
 -------------------------------------------------------------------------------

 The number of warnings for this run is : 1
 
 -------------------------------------------------------------------------------
  **** **** ******  **  PROGRAM ENDED AT                 2023-12-02 19:52:53.448
 ***** ** ***  *** **   PROGRAM RAN ON                                     cu385
 **    ****   ******    PROGRAM RAN BY                                     jxzhu
 ***** **    ** ** **   PROGRAM PROCESS ID                                 12834
  **** **  *******  **  PROGRAM STOPPED IN /public/home/jxzhu/tmp_calc/7584a93e1
                                           395414c6353bd81c17d8ce3b2a07fa1/calc/
                                           002100.000/search_lo.000000
