 DBCSR| CPU Multiplication driver                                           XSMM
 DBCSR| Multrec recursion limit                                              512
 DBCSR| Multiplication stack size                                           1000
 DBCSR| Maximum elements for images                                    UNLIMITED
 DBCSR| Multiplicative factor virtual images                                   1
 DBCSR| Use multiplication densification                                       T
 DBCSR| Multiplication size stacks                                             3
 DBCSR| Use memory pool for CPU allocation                                     F
 DBCSR| Number of 3D layers                                               SINGLE
 DBCSR| Use MPI memory allocation                                              F
 DBCSR| Use RMA algorithm                                                      F
 DBCSR| Use Communication thread                                               T
 DBCSR| Communication thread load                                             87
 DBCSR| MPI: My node id                                                        0
 DBCSR| MPI: Number of nodes                                                  32
 DBCSR| OMP: Current number of threads                                         1
 DBCSR| OMP: Max number of threads                                             1
 DBCSR| Split modifier for TAS multiplication algorithm                  1.0E+00


  **** **** ******  **  PROGRAM STARTED AT               2023-12-03 04:41:05.594
 ***** ** ***  *** **   PROGRAM STARTED ON                                 cu042
 **    ****   ******    PROGRAM STARTED BY                                 jxzhu
 ***** **    ** ** **   PROGRAM PROCESS ID                                 30903
  **** **  *******  **  PROGRAM STARTED IN /public/home/jxzhu/tmp_calc/04c0855f9
                                           8753fac23fde4df51ba20f3741a9e9a/calc/
                                           task.001.000014

 CP2K| version string:                                       CP2K version 2022.1
 CP2K| source code revision number:                                  git:2caeb6f
 CP2K| cp2kflags: omp libint fftw3 libxc elpa parallel mpi3 scalapack cosma xsmm
 CP2K|             plumed2 spglib mkl sirius libvori libbqb
 CP2K| is freely available from                            https://www.cp2k.org/
 CP2K| Program compiled at                           Mon Jul 3 17:37:06 CST 2023
 CP2K| Program compiled on                                                 mu003
 CP2K| Program compiled for                                                local
 CP2K| Data directory path                             /public/home/jxzhu/basis/
 CP2K| Input file name                                                 input.inp
 
 GLOBAL| Force Environment number                                              1
 GLOBAL| Basis set file name                                        BASIS_MOLOPT
 GLOBAL| Potential file name                                      GTH_POTENTIALS
 GLOBAL| MM Potential file name                                     MM_POTENTIAL
 GLOBAL| Coordinate file name                                          coord.xyz
 GLOBAL| Method name                                                        CP2K
 GLOBAL| Project name                                                       cp2k
 GLOBAL| Run type                                                   ENERGY_FORCE
 GLOBAL| FFT library                                                       FFTW3
 GLOBAL| Diagonalization library                                            ELPA
 GLOBAL| Minimum number of eigenvectors for ELPA usage                        16
 GLOBAL| Orthonormality check for eigenvectors                          DISABLED
 GLOBAL| Matrix multiplication library                                     COSMA
 GLOBAL| All-to-all communication in single precision                          F
 GLOBAL| FFTs using library dependent lengths                                  T
 GLOBAL| Grid backend                                                       AUTO
 GLOBAL| Global print level                                               MEDIUM
 GLOBAL| MPI I/O enabled                                                       T
 GLOBAL| Total number of message passing processes                            32
 GLOBAL| Number of threads for this process                                    1
 GLOBAL| This output is from process                                           0
 GLOBAL| Stack size for threads created by OpenMP (OMP_STACKSIZE)        default
 GLOBAL| CPU model name                 Intel(R) Xeon(R) Gold 6338 CPU @ 2.00GHz
 GLOBAL| CPUID                                                              1003

 MEMORY| system memory details [Kb]
 MEMORY|                        rank 0           min           max       average
 MEMORY| MemTotal            263619172     263619172     263619172     263619172
 MEMORY| MemFree             172011376     172011376     172011376     172011376
 MEMORY| Buffers                  3320          3320          3320          3320
 MEMORY| Cached                9257188       9257188       9257188       9257188
 MEMORY| Slab                  2003840       2003840       2003840       2003840
 MEMORY| SReclaimable           248320        248320        248320        248320
 MEMORY| MemLikelyFree       181520204     181520204     181520204     181520204


 *** Fundamental physical constants (SI units) ***

 *** Literature: B. J. Mohr and B. N. Taylor,
 ***             CODATA recommended values of the fundamental physical
 ***             constants: 2006, Web Version 5.1
 ***             http://physics.nist.gov/constants

 Speed of light in vacuum [m/s]                             2.99792458000000E+08
 Magnetic constant or permeability of vacuum [N/A**2]       1.25663706143592E-06
 Electric constant or permittivity of vacuum [F/m]          8.85418781762039E-12
 Planck constant (h) [J*s]                                  6.62606896000000E-34
 Planck constant (h-bar) [J*s]                              1.05457162825177E-34
 Elementary charge [C]                                      1.60217648700000E-19
 Electron mass [kg]                                         9.10938215000000E-31
 Electron g factor [ ]                                     -2.00231930436220E+00
 Proton mass [kg]                                           1.67262163700000E-27
 Fine-structure constant                                    7.29735253760000E-03
 Rydberg constant [1/m]                                     1.09737315685270E+07
 Avogadro constant [1/mol]                                  6.02214179000000E+23
 Boltzmann constant [J/K]                                   1.38065040000000E-23
 Atomic mass unit [kg]                                      1.66053878200000E-27
 Bohr radius [m]                                            5.29177208590000E-11

 *** Conversion factors ***

 [u] -> [a.u.]                                              1.82288848426455E+03
 [Angstrom] -> [Bohr] = [a.u.]                              1.88972613288564E+00
 [a.u.] = [Bohr] -> [Angstrom]                              5.29177208590000E-01
 [a.u.] -> [s]                                              2.41888432650478E-17
 [a.u.] -> [fs]                                             2.41888432650478E-02
 [a.u.] -> [J]                                              4.35974393937059E-18
 [a.u.] -> [N]                                              8.23872205491840E-08
 [a.u.] -> [K]                                              3.15774647902944E+05
 [a.u.] -> [kJ/mol]                                         2.62549961709828E+03
 [a.u.] -> [kcal/mol]                                       6.27509468713739E+02
 [a.u.] -> [Pa]                                             2.94210107994716E+13
 [a.u.] -> [bar]                                            2.94210107994716E+08
 [a.u.] -> [atm]                                            2.90362800883016E+08
 [a.u.] -> [eV]                                             2.72113838565563E+01
 [a.u.] -> [Hz]                                             6.57968392072181E+15
 [a.u.] -> [1/cm] (wave numbers)                            2.19474631370540E+05
 [a.u./Bohr**2] -> [1/cm]                                   5.14048714338585E+03
 

 CELL_TOP| Volume [angstrom^3]:                                     12686.086737
 CELL_TOP| Vector a [angstrom    16.869     0.000     0.000   |a| =    16.869000
 CELL_TOP| Vector b [angstrom    -8.434    14.609     0.000   |b| =    16.868929
 CELL_TOP| Vector c [angstrom     0.000     0.000    51.478   |c| =    51.477900
 CELL_TOP| Angle (b,c), alpha [degree]:                                90.000000
 CELL_TOP| Angle (a,c), beta  [degree]:                                90.000000
 CELL_TOP| Angle (a,b), gamma [degree]:                               120.000140
 CELL_TOP| Numerically orthorhombic:                                          NO
 
 GENERATE|  Preliminary Number of Bonds generated:                             0
 GENERATE|  Achieved consistency in connectivity generation.

 CELL| Volume [angstrom^3]:                                         12686.086737
 CELL| Vector a [angstrom]:      16.869     0.000     0.000   |a| =    16.869000
 CELL| Vector b [angstrom]:      -8.434    14.609     0.000   |b| =    16.868929
 CELL| Vector c [angstrom]:       0.000     0.000    51.478   |c| =    51.477900
 CELL| Angle (b,c), alpha [degree]:                                    90.000000
 CELL| Angle (a,c), beta  [degree]:                                    90.000000
 CELL| Angle (a,b), gamma [degree]:                                   120.000140
 CELL| Numerically orthorhombic:                                              NO

 CELL_REF| Volume [angstrom^3]:                                     12686.086737
 CELL_REF| Vector a [angstrom    16.869     0.000     0.000   |a| =    16.869000
 CELL_REF| Vector b [angstrom    -8.434    14.609     0.000   |b| =    16.868929
 CELL_REF| Vector c [angstrom     0.000     0.000    51.478   |c| =    51.477900
 CELL_REF| Angle (b,c), alpha [degree]:                                90.000000
 CELL_REF| Angle (a,c), beta  [degree]:                                90.000000
 CELL_REF| Angle (a,b), gamma [degree]:                               120.000140
 CELL_REF| Numerically orthorhombic:                                          NO

 *******************************************************************************
 *******************************************************************************
 **                                                                           **
 **     #####                         ##              ##                      **
 **    ##   ##            ##          ##              ##                      **
 **   ##     ##                       ##            ######                    **
 **   ##     ##  ##   ##  ##   #####  ##  ##   ####   ##    #####    #####    **
 **   ##     ##  ##   ##  ##  ##      ## ##   ##      ##   ##   ##  ##   ##   **
 **   ##  ## ##  ##   ##  ##  ##      ####     ###    ##   ######   ######    **
 **    ##  ###   ##   ##  ##  ##      ## ##      ##   ##   ##       ##        **
 **     #######   #####   ##   #####  ##  ##  ####    ##    #####   ##        **
 **           ##                                                    ##        **
 **                                                                           **
 **                                                ... make the atoms dance   **
 **                                                                           **
 **            Copyright (C) by CP2K developers group (2000-2022)             **
 **                      J. Chem. Phys. 152, 194103 (2020)                    **
 **                                                                           **
 *******************************************************************************

 DFT| Spin restricted Kohn-Sham (RKS) calculation                            RKS
 DFT| Multiplicity                                                             1
 DFT| Number of spin states                                                    1
 DFT| Charge                                                                   0
 DFT| Self-interaction correction (SIC)                                       NO
 DFT| Cutoffs: density                                              1.000000E-10
 DFT|          gradient                                             1.000000E-10
 DFT|          tau                                                  1.000000E-10
 DFT|          cutoff_smoothing_range                               0.000000E+00
 DFT| XC density smoothing                                                  NONE
 DFT| XC derivatives                                                          PW

 FUNCTIONAL| PBE:
 FUNCTIONAL| J.P.Perdew, K.Burke, M.Ernzerhof, Phys. Rev. Letter, vol. 77, n 18,
 FUNCTIONAL|  pp. 3865-3868, (1996){spin unpolarized}                           

 vdW POTENTIAL|                                                   Pair Potential
 vdW POTENTIAL|          DFT-D3 (Version 3.1)
 vdW POTENTIAL|          Potential Form: S. Grimme et al, JCP 132: 154104 (2010)
 vdW POTENTIAL|          Zero Damping
 vdW POTENTIAL|          Cutoff Radius [Bohr]:                             20.00
 vdW POTENTIAL|          s6 Scaling Factor:                               1.0000
 vdW POTENTIAL|          sr6 Scaling Factor:                              1.2170
 vdW POTENTIAL|          s8 Scaling Factor:                               0.7220
 vdW POTENTIAL|          Cutoff for CN calculation:                   0.1000E-05

 QS| Method:                                                                 GPW
 QS| Density plane wave grid type                        NON-SPHERICAL FULLSPACE
 QS| Number of grid levels:                                                    4
 QS| Density cutoff [a.u.]:                                                200.0
 QS| Multi grid cutoff [a.u.]: 1) grid level                               200.0
 QS|                           2) grid level                                66.7
 QS|                           3) grid level                                22.2
 QS|                           4) grid level                                 7.4
 QS| Grid level progression factor:                                          3.0
 QS| Relative density cutoff [a.u.]:                                        20.0
 QS| Interaction thresholds: eps_pgf_orb:                                3.2E-07
 QS|                         eps_filter_matrix:                          0.0E+00
 QS|                         eps_core_charge:                            1.0E-15
 QS|                         eps_rho_gspace:                             1.0E-13
 QS|                         eps_rho_rspace:                             1.0E-13
 QS|                         eps_gvg_rspace:                             3.2E-07
 QS|                         eps_ppl:                                    1.0E-02
 QS|                         eps_ppnl:                                   3.2E-09


 ATOMIC KIND INFORMATION

  1. Atomic kind: Pt                                    Number of atoms:     216

     Orbital Basis Set                      DZVP-A5-Q10-323-MOL-T1-DERIVED_SET-1

       Number of orbital shell sets:                                           1
       Number of orbital shells:                                               6
       Number of primitive Cartesian functions:                                5
       Number of Cartesian basis functions:                                   23
       Number of spherical basis functions:                                   20
       Norm type:                                                              2

       Normalised Cartesian orbitals:

                        Set   Shell   Orbital            Exponent    Coefficient

                          1       1    2s                2.521825       0.177473
                                                         1.453920      -0.063399
                                                         0.614053      -0.407089
                                                         0.232656       0.262254
                                                         0.074788       0.047371

                          1       2    3s                2.521825      -0.049056
                                                         1.453920       0.044904
                                                         0.614053      -0.009756
                                                         0.232656      -0.144709
                                                         0.074788       0.144085

                          1       3    3px               2.521825      -0.317572
                                                         1.453920       0.534826
                                                         0.614053      -0.489458
                                                         0.232656       0.245631
                                                         0.074788       0.018221
                          1       3    3py               2.521825      -0.317572
                                                         1.453920       0.534826
                                                         0.614053      -0.489458
                                                         0.232656       0.245631
                                                         0.074788       0.018221
                          1       3    3pz               2.521825      -0.317572
                                                         1.453920       0.534826
                                                         0.614053      -0.489458
                                                         0.232656       0.245631
                                                         0.074788       0.018221

                          1       4    4dx2              2.521825       3.008522
                                                         1.453920      -1.224251
                                                         0.614053       0.225691
                                                         0.232656       0.125144
                                                         0.074788      -0.015348
                          1       4    4dxy              2.521825       5.210912
                                                         1.453920      -2.120465
                                                         0.614053       0.390909
                                                         0.232656       0.216756
                                                         0.074788      -0.026584
                          1       4    4dxz              2.521825       5.210912
                                                         1.453920      -2.120465
                                                         0.614053       0.390909
                                                         0.232656       0.216756
                                                         0.074788      -0.026584
                          1       4    4dy2              2.521825       3.008522
                                                         1.453920      -1.224251
                                                         0.614053       0.225691
                                                         0.232656       0.125144
                                                         0.074788      -0.015348
                          1       4    4dyz              2.521825       5.210912
                                                         1.453920      -2.120465
                                                         0.614053       0.390909
                                                         0.232656       0.216756
                                                         0.074788      -0.026584
                          1       4    4dz2              2.521825       3.008522
                                                         1.453920      -1.224251
                                                         0.614053       0.225691
                                                         0.232656       0.125144
                                                         0.074788      -0.015348

                          1       5    5dx2              2.521825       0.698026
                                                         1.453920      -1.511486
                                                         0.614053      -0.335394
                                                         0.232656      -0.025564
                                                         0.074788      -0.002699
                          1       5    5dxy              2.521825       1.209017
                                                         1.453920      -2.617970
                                                         0.614053      -0.580920
                                                         0.232656      -0.044277
                                                         0.074788      -0.004674
                          1       5    5dxz              2.521825       1.209017
                                                         1.453920      -2.617970
                                                         0.614053      -0.580920
                                                         0.232656      -0.044277
                                                         0.074788      -0.004674
                          1       5    5dy2              2.521825       0.698026
                                                         1.453920      -1.511486
                                                         0.614053      -0.335394
                                                         0.232656      -0.025564
                                                         0.074788      -0.002699
                          1       5    5dyz              2.521825       1.209017
                                                         1.453920      -2.617970
                                                         0.614053      -0.580920
                                                         0.232656      -0.044277
                                                         0.074788      -0.004674
                          1       5    5dz2              2.521825       0.698026
                                                         1.453920      -1.511486
                                                         0.614053      -0.335394
                                                         0.232656      -0.025564
                                                         0.074788      -0.002699

                          1       6    6dx2              2.521825       0.831079
                                                         1.453920      -0.709226
                                                         0.614053      -0.137351
                                                         0.232656       0.068642
                                                         0.074788       0.011745
                          1       6    6dxy              2.521825       1.439472
                                                         1.453920      -1.228415
                                                         0.614053      -0.237899
                                                         0.232656       0.118891
                                                         0.074788       0.020343
                          1       6    6dxz              2.521825       1.439472
                                                         1.453920      -1.228415
                                                         0.614053      -0.237899
                                                         0.232656       0.118891
                                                         0.074788       0.020343
                          1       6    6dy2              2.521825       0.831079
                                                         1.453920      -0.709226
                                                         0.614053      -0.137351
                                                         0.232656       0.068642
                                                         0.074788       0.011745
                          1       6    6dyz              2.521825       1.439472
                                                         1.453920      -1.228415
                                                         0.614053      -0.237899
                                                         0.232656       0.118891
                                                         0.074788       0.020343
                          1       6    6dz2              2.521825       0.831079
                                                         1.453920      -0.709226
                                                         0.614053      -0.137351
                                                         0.232656       0.068642
                                                         0.074788       0.011745

       Atomic covalent radius [Angstrom]:                                  1.300

       Atomic van der Waals radius [Angstrom]:                             1.750

     GTH Potential information for                                   GTH-PBE-q10

       Description:                       Goedecker-Teter-Hutter pseudopotential
                                           Goedecker et al., PRB 54, 1703 (1996)
                                          Hartwigsen et al., PRB 58, 3641 (1998)
                                                      Krack, TCA 114, 145 (2005)

       Gaussian exponent of the core charge distribution:               1.317676
       Electronic configuration (s p d ...):                           1   0   9

       Parameters of the local part of the GTH pseudopotential:

                          rloc        C1          C2          C3          C4
                        0.616000   11.313635

       Parameters of the non-local part of the GTH pseudopotential:

                   l      r(l)      h(i,j,l)

                   0    0.550904    4.733491   -1.784594
                                   -1.784594    2.303901
                   1    0.674138    2.534798   -1.778066
                                   -1.778066    2.103836
                   2    0.457392   -7.264011    2.558665
                                    2.558665   -2.901253


 MOLECULE KIND INFORMATION


 All atoms are their own molecule, skipping detailed information


 TOTAL NUMBERS AND MAXIMUM NUMBERS

  Total number of            - Atomic kinds:                                   1
                             - Atoms:                                        216
                             - Shell sets:                                   216
                             - Shells:                                      1296
                             - Primitive Cartesian functions:               1080
                             - Cartesian basis functions:                   4968
                             - Spherical basis functions:                   4320

  Maximum angular momentum of- Orbital basis functions:                        2
                             - Local part of the GTH pseudopotential:          0
                             - Non-local part of the GTH pseudopotential:      4


 MODULE QUICKSTEP:  ATOMIC COORDINATES IN angstrom

 Atom  Kind  Element       X           Y           Z          Z(eff)       Mass
    1   1 Pt  78       2.160047    0.434470   19.939933      10.0000    195.0840
    2   1 Pt  78       5.010047    0.294470   19.789935      10.0000    195.0840
    3   1 Pt  78       7.890047    0.404470   19.849937      10.0000    195.0840
    4   1 Pt  78      10.620048    0.354470   19.859935      10.0000    195.0840
    5   1 Pt  78      13.380048    0.244470   19.839935      10.0000    195.0840
    6   1 Pt  78      16.240047    0.294470   19.959937      10.0000    195.0840
    7   1 Pt  78       3.570047    2.884470   19.969936      10.0000    195.0840
    8   1 Pt  78       6.260047    2.704470   19.979938      10.0000    195.0840
    9   1 Pt  78       9.040048    2.794470   19.859935      10.0000    195.0840
   10   1 Pt  78      11.960048    2.744470   19.869933      10.0000    195.0840
   11   1 Pt  78      14.970048    2.764470   19.909934      10.0000    195.0840
   12   1 Pt  78       0.810047    2.834470   19.979938      10.0000    195.0840
   13   1 Pt  78       4.930047    5.254470   19.889938      10.0000    195.0840
   14   1 Pt  78       7.680047    5.214470   19.949935      10.0000    195.0840
   15   1 Pt  78      10.550048    5.164470   19.949935      10.0000    195.0840
   16   1 Pt  78      13.490048    5.154470   20.039935      10.0000    195.0840
   17   1 Pt  78      -0.619953    5.214470   19.799934      10.0000    195.0840
   18   1 Pt  78       2.100047    5.254470   19.879936      10.0000    195.0840
   19   1 Pt  78       6.310047    7.644470   19.959937      10.0000    195.0840
   20   1 Pt  78       9.170048    7.574471   19.929935      10.0000    195.0840
   21   1 Pt  78      12.100047    7.464470   19.989936      10.0000    195.0840
   22   1 Pt  78      -2.039953    7.554471   19.949935      10.0000    195.0840
   23   1 Pt  78       0.680047    7.554471   19.709934      10.0000    195.0840
   24   1 Pt  78       3.430047    7.684471   19.839935      10.0000    195.0840
   25   1 Pt  78       7.690047   10.004471   19.969936      10.0000    195.0840
   26   1 Pt  78      10.510047   10.044470   19.849937      10.0000    195.0840
   27   1 Pt  78      -3.449953   10.054470   19.969936      10.0000    195.0840
   28   1 Pt  78      -0.519953   10.014471   20.009933      10.0000    195.0840
   29   1 Pt  78       2.140047    9.974470   19.799934      10.0000    195.0840
   30   1 Pt  78       4.950047   10.124470   19.819938      10.0000    195.0840
   31   1 Pt  78       9.210048   12.474470   19.829936      10.0000    195.0840
   32   1 Pt  78      -4.799954   12.604470   20.019935      10.0000    195.0840
   33   1 Pt  78      -2.019953   12.604470   20.009933      10.0000    195.0840
   34   1 Pt  78       0.820047   12.564471   19.989936      10.0000    195.0840
   35   1 Pt  78       3.520047   12.484470   19.939933      10.0000    195.0840
   36   1 Pt  78       6.380047   12.524470   19.839935      10.0000    195.0840
   37   1 Pt  78       0.770047    1.304470   22.319938      10.0000    195.0840
   38   1 Pt  78       3.640047    1.304470   22.279933      10.0000    195.0840
   39   1 Pt  78       6.500047    1.114470   22.249938      10.0000    195.0840
   40   1 Pt  78       9.270047    1.124470   22.249938      10.0000    195.0840
   41   1 Pt  78      11.960048    1.154470   22.339935      10.0000    195.0840
   42   1 Pt  78      14.650047    1.084470   22.279933      10.0000    195.0840
   43   1 Pt  78       2.070047    3.654470   22.219936      10.0000    195.0840
   44   1 Pt  78       4.940047    3.574470   22.299934      10.0000    195.0840
   45   1 Pt  78       7.790048    3.534470   22.309936      10.0000    195.0840
   46   1 Pt  78      10.530047    3.484470   22.239936      10.0000    195.0840
   47   1 Pt  78      13.280047    3.574470   22.309936      10.0000    195.0840
   48   1 Pt  78      -0.749953    3.534470   22.339935      10.0000    195.0840
   49   1 Pt  78       3.530047    6.154470   22.109935      10.0000    195.0840
   50   1 Pt  78       6.200047    5.994471   22.299934      10.0000    195.0840
   51   1 Pt  78       9.020047    5.984470   22.259937      10.0000    195.0840
   52   1 Pt  78      11.910048    5.994471   22.259937      10.0000    195.0840
   53   1 Pt  78      -2.149953    6.024470   22.319938      10.0000    195.0840
   54   1 Pt  78       0.690047    6.034471   22.179935      10.0000    195.0840
   55   1 Pt  78       4.800047    8.554470   22.329936      10.0000    195.0840
   56   1 Pt  78       7.660047    8.374470   22.279933      10.0000    195.0840
   57   1 Pt  78      10.550048    8.434470   22.209934      10.0000    195.0840
   58   1 Pt  78      -3.579953    8.434470   22.269935      10.0000    195.0840
   59   1 Pt  78      -0.689953    8.454471   22.129936      10.0000    195.0840
   60   1 Pt  78       2.080047    8.374470   22.219936      10.0000    195.0840
   61   1 Pt  78       6.430047   10.874471   22.249938      10.0000    195.0840
   62   1 Pt  78       9.160047   10.864471   22.229934      10.0000    195.0840
   63   1 Pt  78      -4.929954   10.904470   22.249938      10.0000    195.0840
   64   1 Pt  78      -2.129953   10.984471   22.259937      10.0000    195.0840
   65   1 Pt  78       0.840047   10.894470   22.229934      10.0000    195.0840
   66   1 Pt  78       3.620047   10.964470   22.219936      10.0000    195.0840
   67   1 Pt  78       7.750047   13.254471   22.169937      10.0000    195.0840
   68   1 Pt  78      -6.329953   13.474470   22.189937      10.0000    195.0840
   69   1 Pt  78      -3.599953   13.454471   22.299934      10.0000    195.0840
   70   1 Pt  78      -0.539953   13.404470   22.239936      10.0000    195.0840
   71   1 Pt  78       2.150047   13.334471   22.279933      10.0000    195.0840
   72   1 Pt  78       4.930047   13.354471   22.259937      10.0000    195.0840
   73   1 Pt  78      -7.759954   14.164471   24.469936      10.0000    195.0840
   74   1 Pt  78      -4.879953   14.164471   24.459937      10.0000    195.0840
   75   1 Pt  78      -2.019953   14.124472   24.539935      10.0000    195.0840
   76   1 Pt  78       0.670047   14.074472   24.649936      10.0000    195.0840
   77   1 Pt  78       3.500047   14.114471   24.619933      10.0000    195.0840
   78   1 Pt  78       6.340047   14.174471   24.679935      10.0000    195.0840
   79   1 Pt  78       2.080047    2.084470   24.489936      10.0000    195.0840
   80   1 Pt  78       4.950047    2.074470   24.579936      10.0000    195.0840
   81   1 Pt  78       7.800047    1.964470   24.609935      10.0000    195.0840
   82   1 Pt  78      10.600047    1.844470   24.619933      10.0000    195.0840
   83   1 Pt  78      13.380048    1.924470   24.679935      10.0000    195.0840
   84   1 Pt  78      -0.719953    1.914470   24.599937      10.0000    195.0840
   85   1 Pt  78       3.570047    4.494470   24.579936      10.0000    195.0840
   86   1 Pt  78       6.380047    4.384470   24.529937      10.0000    195.0840
   87   1 Pt  78       9.200047    4.404470   24.579936      10.0000    195.0840
   88   1 Pt  78      11.870048    4.384470   24.589935      10.0000    195.0840
   89   1 Pt  78      -2.179953    4.394470   24.549934      10.0000    195.0840
   90   1 Pt  78       0.750047    4.384470   24.579936      10.0000    195.0840
   91   1 Pt  78       4.960047    6.884470   24.599937      10.0000    195.0840
   92   1 Pt  78       7.720047    6.834470   24.579936      10.0000    195.0840
   93   1 Pt  78      10.460048    6.954471   24.609935      10.0000    195.0840
   94   1 Pt  78      -3.619953    6.794470   24.589935      10.0000    195.0840
   95   1 Pt  78      -0.609953    6.784471   24.599937      10.0000    195.0840
   96   1 Pt  78       2.110047    6.874470   24.539935      10.0000    195.0840
   97   1 Pt  78       6.320047    9.344471   24.629936      10.0000    195.0840
   98   1 Pt  78       9.130048    9.284471   24.509937      10.0000    195.0840
   99   1 Pt  78      -4.889953    9.314470   24.479934      10.0000    195.0840
  100   1 Pt  78      -2.099953    9.134470   24.479934      10.0000    195.0840
  101   1 Pt  78       0.750047    9.234470   24.519935      10.0000    195.0840
  102   1 Pt  78       3.520047    9.264471   24.669937      10.0000    195.0840
  103   1 Pt  78       7.700047   11.784471   24.589935      10.0000    195.0840
  104   1 Pt  78      -6.429953   11.754470   24.389938      10.0000    195.0840
  105   1 Pt  78      -3.459953   11.714471   24.509937      10.0000    195.0840
  106   1 Pt  78      -0.749953   11.594471   24.569938      10.0000    195.0840
  107   1 Pt  78       2.020047   11.724471   24.599937      10.0000    195.0840
  108   1 Pt  78       4.830047   11.764471   24.609935      10.0000    195.0840
  109   1 Pt  78       2.070047    0.374470   26.707934      10.0000    195.0840
  110   1 Pt  78       4.880047    0.284470   26.807934      10.0000    195.0840
  111   1 Pt  78       7.710047    0.354470   26.907934      10.0000    195.0840
  112   1 Pt  78      10.400047    0.354470   26.947934      10.0000    195.0840
  113   1 Pt  78      13.300048    0.284470   26.987934      10.0000    195.0840
  114   1 Pt  78      16.050047    0.354470   26.917934      10.0000    195.0840
  115   1 Pt  78       3.500047    2.664470   26.847934      10.0000    195.0840
  116   1 Pt  78       6.270047    2.824470   26.967934      10.0000    195.0840
  117   1 Pt  78       9.080048    2.904470   26.867934      10.0000    195.0840
  118   1 Pt  78      11.860048    2.754470   26.927934      10.0000    195.0840
  119   1 Pt  78      14.750047    2.694470   26.927934      10.0000    195.0840
  120   1 Pt  78       0.700047    2.734470   26.917934      10.0000    195.0840
  121   1 Pt  78       4.910047    5.204471   26.897934      10.0000    195.0840
  122   1 Pt  78       7.630047    5.334471   26.867934      10.0000    195.0840
  123   1 Pt  78      10.390047    5.344471   26.897934      10.0000    195.0840
  124   1 Pt  78      13.220047    5.154470   26.867934      10.0000    195.0840
  125   1 Pt  78      -0.789953    5.174470   26.827934      10.0000    195.0840
  126   1 Pt  78       2.140047    5.174470   26.827934      10.0000    195.0840
  127   1 Pt  78       6.290047    7.734470   26.897934      10.0000    195.0840
  128   1 Pt  78       9.100047    7.714470   26.907934      10.0000    195.0840
  129   1 Pt  78      11.950047    7.664471   26.887934      10.0000    195.0840
  130   1 Pt  78      -2.199953    7.524470   26.837934      10.0000    195.0840
  131   1 Pt  78       0.680047    7.524470   26.887934      10.0000    195.0840
  132   1 Pt  78       3.490047    7.654470   26.867934      10.0000    195.0840
  133   1 Pt  78       7.710047   10.214471   26.847934      10.0000    195.0840
  134   1 Pt  78      10.510047   10.064471   26.717934      10.0000    195.0840
  135   1 Pt  78      -3.589953   10.044470   26.737934      10.0000    195.0840
  136   1 Pt  78      -0.759953   10.034471   26.877934      10.0000    195.0840
  137   1 Pt  78       2.010047   10.114471   26.987934      10.0000    195.0840
  138   1 Pt  78       4.840047   10.054470   26.877934      10.0000    195.0840
  139   1 Pt  78       9.030047   12.584471   26.877934      10.0000    195.0840
  140   1 Pt  78      -5.019953   12.464471   26.607934      10.0000    195.0840
  141   1 Pt  78      -2.189953   12.414471   26.927934      10.0000    195.0840
  142   1 Pt  78       0.560047   12.454471   26.907934      10.0000    195.0840
  143   1 Pt  78       3.370047   12.534471   27.027934      10.0000    195.0840
  144   1 Pt  78       6.270047   12.514471   26.977934      10.0000    195.0840
  145   1 Pt  78       0.520047    1.204470   29.197934      10.0000    195.0840
  146   1 Pt  78       3.410047    1.234470   29.097934      10.0000    195.0840
  147   1 Pt  78       6.150047    1.194470   29.247934      10.0000    195.0840
  148   1 Pt  78       9.050047    1.294470   29.117934      10.0000    195.0840
  149   1 Pt  78      11.820047    1.254470   29.237934      10.0000    195.0840
  150   1 Pt  78      14.610047    1.214470   29.447934      10.0000    195.0840
  151   1 Pt  78       1.980047    3.664470   29.177934      10.0000    195.0840
  152   1 Pt  78       4.820047    3.624470   29.177934      10.0000    195.0840
  153   1 Pt  78       7.640047    3.744470   29.237934      10.0000    195.0840
  154   1 Pt  78      10.550048    3.704470   29.187934      10.0000    195.0840
  155   1 Pt  78      13.250048    3.634470   29.217934      10.0000    195.0840
  156   1 Pt  78      -0.829953    3.554470   29.247934      10.0000    195.0840
  157   1 Pt  78       3.360047    6.054470   29.227934      10.0000    195.0840
  158   1 Pt  78       6.200047    6.084470   29.287934      10.0000    195.0840
  159   1 Pt  78       9.100047    6.094470   29.357934      10.0000    195.0840
  160   1 Pt  78      11.940047    6.094470   29.177934      10.0000    195.0840
  161   1 Pt  78      -2.129953    5.994471   29.257934      10.0000    195.0840
  162   1 Pt  78       0.570047    5.974470   29.127934      10.0000    195.0840
  163   1 Pt  78       4.790047    8.454471   29.207934      10.0000    195.0840
  164   1 Pt  78       7.780047    8.524470   29.157934      10.0000    195.0840
  165   1 Pt  78      10.630048    8.634470   29.147934      10.0000    195.0840
  166   1 Pt  78      -3.429953    8.424471   29.197934      10.0000    195.0840
  167   1 Pt  78      -0.739953    8.484470   29.237934      10.0000    195.0840
  168   1 Pt  78       2.030047    8.394470   29.217934      10.0000    195.0840
  169   1 Pt  78       6.290047   10.814470   29.207934      10.0000    195.0840
  170   1 Pt  78       9.120048   10.944470   29.057934      10.0000    195.0840
  171   1 Pt  78      -5.049954   11.014470   29.017935      10.0000    195.0840
  172   1 Pt  78      -2.099953   11.054471   29.227934      10.0000    195.0840
  173   1 Pt  78       0.590047   10.784470   29.267934      10.0000    195.0840
  174   1 Pt  78       3.500047   10.914471   29.267934      10.0000    195.0840
  175   1 Pt  78       7.700047   13.444470   29.227934      10.0000    195.0840
  176   1 Pt  78      -6.409953   13.444470   29.037934      10.0000    195.0840
  177   1 Pt  78      -3.619953   13.394470   29.037934      10.0000    195.0840
  178   1 Pt  78      -0.769953   13.394470   29.197934      10.0000    195.0840
  179   1 Pt  78       2.040047   13.334471   29.227934      10.0000    195.0840
  180   1 Pt  78       4.900047   13.334471   29.307934      10.0000    195.0840
  181   1 Pt  78      -7.769954   14.244471   31.657934      10.0000    195.0840
  182   1 Pt  78      -5.099954   14.194471   31.457935      10.0000    195.0840
  183   1 Pt  78      -2.289953   14.184470   31.467934      10.0000    195.0840
  184   1 Pt  78       0.690047   14.184470   31.507934      10.0000    195.0840
  185   1 Pt  78       3.500047   14.364471   31.447934      10.0000    195.0840
  186   1 Pt  78       6.300047   14.224471   31.677934      10.0000    195.0840
  187   1 Pt  78       2.040047    1.944470   31.537934      10.0000    195.0840
  188   1 Pt  78       4.790047    2.064470   31.687935      10.0000    195.0840
  189   1 Pt  78       7.560047    1.914470   31.507934      10.0000    195.0840
  190   1 Pt  78      10.400047    2.074470   31.587934      10.0000    195.0840
  191   1 Pt  78      13.280047    2.074470   31.667934      10.0000    195.0840
  192   1 Pt  78      -0.729953    2.104470   31.767934      10.0000    195.0840
  193   1 Pt  78       3.520047    4.514470   31.517935      10.0000    195.0840
  194   1 Pt  78       6.330047    4.464470   31.557934      10.0000    195.0840
  195   1 Pt  78       8.990047    4.494470   31.667934      10.0000    195.0840
  196   1 Pt  78      11.940047    4.504470   31.607935      10.0000    195.0840
  197   1 Pt  78      -2.129953    4.504470   31.597934      10.0000    195.0840
  198   1 Pt  78       0.600047    4.524470   31.447934      10.0000    195.0840
  199   1 Pt  78       4.790047    6.974470   31.607935      10.0000    195.0840
  200   1 Pt  78       7.580047    6.934470   31.507934      10.0000    195.0840
  201   1 Pt  78      10.550048    6.804470   31.477935      10.0000    195.0840
  202   1 Pt  78      -3.459953    6.884470   31.557934      10.0000    195.0840
  203   1 Pt  78      -0.739953    6.944470   31.717934      10.0000    195.0840
  204   1 Pt  78       1.940047    6.864471   31.617934      10.0000    195.0840
  205   1 Pt  78       6.270047    9.474470   31.567934      10.0000    195.0840
  206   1 Pt  78       9.130048    9.384470   31.437934      10.0000    195.0840
  207   1 Pt  78      -4.789953    9.344471   31.457935      10.0000    195.0840
  208   1 Pt  78      -2.059953    9.324471   31.527934      10.0000    195.0840
  209   1 Pt  78       0.670047    9.404470   31.687935      10.0000    195.0840
  210   1 Pt  78       3.450047    9.424470   31.527934      10.0000    195.0840
  211   1 Pt  78       7.880047   11.824471   31.447934      10.0000    195.0840
  212   1 Pt  78      -6.329953   11.694471   31.307934      10.0000    195.0840
  213   1 Pt  78      -3.589953   11.774471   31.477935      10.0000    195.0840
  214   1 Pt  78      -0.679953   11.924471   31.637934      10.0000    195.0840
  215   1 Pt  78       2.100047   11.904471   31.577934      10.0000    195.0840
  216   1 Pt  78       4.820047   11.864471   31.547935      10.0000    195.0840




 SCF PARAMETERS         Density guess:                                   RESTART
                        --------------------------------------------------------
                        max_scf:                                             500
                        max_scf_history:                                       0
                        max_diis:                                              4
                        --------------------------------------------------------
                        eps_scf:                                        1.00E-06
                        eps_scf_history:                                0.00E+00
                        eps_diis:                                       1.00E-01
                        eps_eigval:                                     1.00E-05
                        --------------------------------------------------------
                        level_shift [a.u.]:                             0.000000
                        added MOs                                       500    0
                        --------------------------------------------------------
                        Mixing method:                            BROYDEN_MIXING
                                                charge density mixing in g-space
                        --------------------------------------------------------
                        Smear method:                                FERMI_DIRAC
                        Electronic temperature [K]:                        300.0
                        Electronic temperature [a.u.]:                  9.50E-04
                        Accuracy threshold:                             1.00E-10
                        --------------------------------------------------------
                        No outer SCF

 PW_GRID| Information for grid number                                          1
 PW_GRID| Grid distributed over                                    32 processors
 PW_GRID| Real space group dimensions                                    32    1
 PW_GRID| the grid is blocked:                                                NO
 PW_GRID| Cutoff [a.u.]                                                    200.0
 PW_GRID| spherical cutoff:                                                   NO
 PW_GRID|   Bounds   1           -105     104                Points:         210
 PW_GRID|   Bounds   2           -105     104                Points:         210
 PW_GRID|   Bounds   3           -315     314                Points:         630
 PW_GRID| Volume element (a.u.^3)  0.3081E-02     Volume (a.u.^3)     85609.9578
 PW_GRID| Grid span                                                    FULLSPACE
 PW_GRID|   Distribution                         Average         Max         Min
 PW_GRID|   G-Vectors                           868218.8      868350      868140
 PW_GRID|   G-Rays                                4134.4        4135        4134
 PW_GRID|   Real Space Points                   868218.8      926100      793800

 PW_GRID| Information for grid number                                          2
 PW_GRID| Number of the reference grid                                         1
 PW_GRID| Grid distributed over                                    32 processors
 PW_GRID| Real space group dimensions                                    32    1
 PW_GRID| the grid is blocked:                                                NO
 PW_GRID| Cutoff [a.u.]                                                     66.7
 PW_GRID| spherical cutoff:                                                   NO
 PW_GRID|   Bounds   1            -60      59                Points:         120
 PW_GRID|   Bounds   2            -60      59                Points:         120
 PW_GRID|   Bounds   3           -180     179                Points:         360
 PW_GRID| Volume element (a.u.^3)  0.1651E-01     Volume (a.u.^3)     85609.9578
 PW_GRID| Grid span                                                    FULLSPACE
 PW_GRID|   Distribution                         Average         Max         Min
 PW_GRID|   G-Vectors                           162000.0      162840      161280
 PW_GRID|   G-Rays                                1350.0        1357        1344
 PW_GRID|   Real Space Points                   162000.0      172800      129600

 PW_GRID| Information for grid number                                          3
 PW_GRID| Number of the reference grid                                         1
 PW_GRID| Grid distributed over                                    32 processors
 PW_GRID| Real space group dimensions                                    32    1
 PW_GRID| the grid is blocked:                                                NO
 PW_GRID| Cutoff [a.u.]                                                     22.2
 PW_GRID| spherical cutoff:                                                   NO
 PW_GRID|   Bounds   1            -35      34                Points:          70
 PW_GRID|   Bounds   2            -35      34                Points:          70
 PW_GRID|   Bounds   3           -105     104                Points:         210
 PW_GRID| Volume element (a.u.^3)  0.8320E-01     Volume (a.u.^3)     85609.9578
 PW_GRID| Grid span                                                    FULLSPACE
 PW_GRID|   Distribution                         Average         Max         Min
 PW_GRID|   G-Vectors                            32156.2       32340       31990
 PW_GRID|   G-Rays                                 459.4         462         457
 PW_GRID|   Real Space Points                    32156.2       44100       29400

 PW_GRID| Information for grid number                                          4
 PW_GRID| Number of the reference grid                                         1
 PW_GRID| Grid distributed over                                    32 processors
 PW_GRID| Real space group dimensions                                    32    1
 PW_GRID| the grid is blocked:                                                NO
 PW_GRID| Cutoff [a.u.]                                                      7.4
 PW_GRID| spherical cutoff:                                                   NO
 PW_GRID|   Bounds   1            -20      19                Points:          40
 PW_GRID|   Bounds   2            -20      19                Points:          40
 PW_GRID|   Bounds   3            -60      59                Points:         120
 PW_GRID| Volume element (a.u.^3)  0.4459         Volume (a.u.^3)     85609.9578
 PW_GRID| Grid span                                                    FULLSPACE
 PW_GRID|   Distribution                         Average         Max         Min
 PW_GRID|   G-Vectors                             6000.0        6120        5920
 PW_GRID|   G-Rays                                 150.0         153         148
 PW_GRID|   Real Space Points                     6000.0        9600        4800

 POISSON| Solver                                          IMPLICIT (GENERALIZED)
 POISSON| Boundary Condition                                PERIODIC & DIRICHLET
 POISSON| Maximum number of iterations                                        30
 POISSON| Convergence threshold                                         1.00E-08
 POISSON| Dielectric Constant                                              80.00
 POISSON| Relaxation parameter                                          1.00E+00

 RS_GRID| Information for grid number                                          1
 RS_GRID|   Bounds   1           -105     104                Points:         210
 RS_GRID|   Bounds   2           -105     104                Points:         210
 RS_GRID|   Bounds   3           -315     314                Points:         630
 RS_GRID| Real space distribution over                                 32 groups
 RS_GRID| Real space distribution along direction                              3
 RS_GRID| Border size                                                         54
 RS_GRID|   Distribution                         Average         Max         Min
 RS_GRID|   Planes                                 127.7         128         127

 RS_GRID| Information for grid number                                          2
 RS_GRID|   Bounds   1            -60      59                Points:         120
 RS_GRID|   Bounds   2            -60      59                Points:         120
 RS_GRID|   Bounds   3           -180     179                Points:         360
 RS_GRID| Real space distribution over                                 32 groups
 RS_GRID| Real space distribution along direction                              3
 RS_GRID| Border size                                                         36
 RS_GRID|   Distribution                         Average         Max         Min
 RS_GRID|   Planes                                  83.2          84          83

 RS_GRID| Information for grid number                                          3
 RS_GRID|   Bounds   1            -35      34                Points:          70
 RS_GRID|   Bounds   2            -35      34                Points:          70
 RS_GRID|   Bounds   3           -105     104                Points:         210
 RS_GRID| Real space fully replicated
 RS_GRID| Group size                                                           1

 RS_GRID| Information for grid number                                          4
 RS_GRID|   Bounds   1            -20      19                Points:          40
 RS_GRID|   Bounds   2            -20      19                Points:          40
 RS_GRID|   Bounds   3            -60      59                Points:         120
 RS_GRID| Real space fully replicated
 RS_GRID| Group size                                                           1

 Number of electrons:                                                       2160
 Number of occupied orbitals:                                               1080
 Number of molecular orbitals:                                              1580

 Number of orbital functions:                                               4320
 Number of independent orbital functions:                                   4320

 Extrapolation method: initial_guess


 SCF WAVEFUNCTION OPTIMIZATION

  Step     Update method      Time    Convergence         Total energy    Change
  ------------------------------------------------------------------------------

  POISSON| IMPLICIT (GENERALIZED) SOLVER ---------------------------------------
  POISSON| Preparing Dirichlet regions ...
  POISSON| Dirichlet region    1
  POISSON|     type : axis-aligned planar
  POISSON|     applied potential :   0.0000E+00  [Eh/e]
  POISSON| Dirichlet region    2
  POISSON|     type : axis-aligned planar
  POISSON|     applied potential :   0.0000E+00  [Eh/e]
  POISSON| ... Done. 
  ------------------------------------------------------------------------------

  POISSON|   iter        pres error      nabs error        E_hartree    delta E
  POISSON|      1        0.5570E-06      0.3303E-01    1992.4318107945  0.20E+04
  POISSON|      2        0.9701E-15      0.5570E-06    1992.4318107945  0.23E-10
  POISSON| Poisson solver converged in 2 iterations.
     1 NoMix/Diag. 0.30E+00   11.1     0.21505222     -5670.8678806327 -5.67E+03
  POISSON|   iter        pres error      nabs error        E_hartree    delta E
  POISSON|      1        0.3087E-04      0.3281E-01    1992.3061442255 -0.13E+00
  POISSON|      2        0.1052E-14      0.3087E-04    1992.3061442255  0.23E-10
  POISSON| Poisson solver converged in 2 iterations.
     2 Broy./Diag. 0.30E+00   13.3     0.24410340     -5670.8326636713  3.52E-02
  POISSON|   iter        pres error      nabs error        E_hartree    delta E
  POISSON|      1        0.7333E-04      0.4046E-03    1992.4929798919  0.19E+00
  POISSON|      2        0.7480E-17      0.7333E-04    1992.4929798919  0.45E-12
  POISSON| Poisson solver converged in 2 iterations.
     3 Broy./Diag. 0.30E+00   13.5     0.15708698     -5675.8023287002 -4.97E+00
  POISSON|   iter        pres error      nabs error        E_hartree    delta E
  POISSON|      1        0.8453E-04      0.3409E-03    1992.5340717885  0.41E-01
  POISSON|      2        0.1185E-16      0.8453E-04    1992.5340717885  0.23E-12
  POISSON| Poisson solver converged in 2 iterations.
     4 Broy./Diag. 0.30E+00   13.3     0.14182285     -5672.9622833122  2.84E+00
  POISSON|   iter        pres error      nabs error        E_hartree    delta E
  POISSON|      1        0.4658E-04      0.1868E-03    1992.6254986710  0.91E-01
  POISSON|      2        0.5764E-17      0.4658E-04    1992.6254986710  0.11E-11
  POISSON| Poisson solver converged in 2 iterations.
     5 Broy./Diag. 0.30E+00   13.3     0.08958165     -5672.3671316424  5.95E-01
  POISSON|   iter        pres error      nabs error        E_hartree    delta E
  POISSON|      1        0.2594E-05      0.4509E-04    1992.7481460173  0.12E+00
  POISSON|      2        0.1597E-17      0.2594E-05    1992.7481460173  0.45E-12
  POISSON| Poisson solver converged in 2 iterations.
     6 Broy./Diag. 0.30E+00   13.3     0.03368741     -5672.9345497042 -5.67E-01
  POISSON|   iter        pres error      nabs error        E_hartree    delta E
  POISSON|      1        0.3577E-05      0.3433E-04    1992.8591832171  0.11E+00
  POISSON|      2        0.1853E-18      0.3577E-05    1992.8591832171  0.00E+00
  POISSON| Poisson solver converged in 2 iterations.
     7 Broy./Diag. 0.30E+00   13.4     0.02595160     -5672.2811580171  6.53E-01
  POISSON|   iter        pres error      nabs error        E_hartree    delta E
  POISSON|      1        0.4281E-06      0.2958E-04    1992.9251039769  0.66E-01
  POISSON|      2        0.9933E-18      0.4281E-06    1992.9251039769 -0.45E-12
  POISSON| Poisson solver converged in 2 iterations.
     8 Broy./Diag. 0.30E+00   13.4     0.01997887     -5672.1702904198  1.11E-01
  POISSON|   iter        pres error      nabs error        E_hartree    delta E
  POISSON|      1        0.3030E-06      0.1188E-04    1992.9514854531  0.26E-01
  POISSON|      2        0.8319E-19      0.3030E-06    1992.9514854531  0.00E+00
  POISSON| Poisson solver converged in 2 iterations.
     9 Broy./Diag. 0.30E+00   13.5     0.01161214     -5672.3441218961 -1.74E-01
  POISSON|   iter        pres error      nabs error        E_hartree    delta E
  POISSON|      1        0.7235E-06      0.5626E-05    1992.9630277777  0.12E-01
  POISSON|      2        0.6480E-19      0.7235E-06    1992.9630277777  0.23E-12
  POISSON| Poisson solver converged in 2 iterations.
    10 Broy./Diag. 0.30E+00   13.5     0.00480933     -5672.2653395025  7.88E-02
  POISSON|   iter        pres error      nabs error        E_hartree    delta E
  POISSON|      1        0.1702E-07      0.4924E-05    1992.9721622626  0.91E-02
  POISSON|      2        0.5945E-19      0.1702E-07    1992.9721622626  0.00E+00
  POISSON| Poisson solver converged in 2 iterations.
    11 Broy./Diag. 0.30E+00   13.6     0.00258634     -5672.2491323469  1.62E-02
  POISSON|   iter        pres error      nabs error        E_hartree    delta E
  POISSON|      1        0.1194E-06      0.4617E-05    1992.9763963717  0.42E-02
  POISSON|      2        0.1063E-18      0.1194E-06    1992.9763963717  0.00E+00
  POISSON| Poisson solver converged in 2 iterations.
    12 Broy./Diag. 0.30E+00   13.6     0.00251353     -5672.2409465360  8.19E-03
  POISSON|   iter        pres error      nabs error        E_hartree    delta E
  POISSON|      1        0.4465E-07      0.3408E-05    1992.9821543555  0.58E-02
  POISSON|      2        0.2188E-19      0.4465E-07    1992.9821543555  0.00E+00
  POISSON| Poisson solver converged in 2 iterations.
    13 Broy./Diag. 0.30E+00   13.6     0.00125804     -5672.2628466047 -2.19E-02
  POISSON|   iter        pres error      nabs error        E_hartree    delta E
  POISSON|      1        0.1638E-06      0.1489E-05    1992.9827612295  0.61E-03
  POISSON|      2        0.3805E-19      0.1638E-06    1992.9827612295  0.00E+00
  POISSON| Poisson solver converged in 2 iterations.
    14 Broy./Diag. 0.30E+00   13.6     0.00088628     -5672.2495071154  1.33E-02
  POISSON|   iter        pres error      nabs error        E_hartree    delta E
  POISSON|      1        0.3239E-06      0.2170E-05    1992.9832778173  0.52E-03
  POISSON|      2        0.8568E-20      0.3239E-06    1992.9832778173  0.00E+00
  POISSON| Poisson solver converged in 2 iterations.
    15 Broy./Diag. 0.30E+00   13.5     0.00104566     -5672.2519711883 -2.46E-03
  POISSON|   iter        pres error      nabs error        E_hartree    delta E
  POISSON|      1        0.4423E-06      0.2020E-05    1992.9833977574  0.12E-03
  POISSON|      2        0.6593E-19      0.4423E-06    1992.9833977574  0.00E+00
  POISSON| Poisson solver converged in 2 iterations.
    16 Broy./Diag. 0.30E+00   13.5     0.00108506     -5672.2521384237 -1.67E-04
  POISSON|   iter        pres error      nabs error        E_hartree    delta E
  POISSON|      1        0.2242E-06      0.1993E-05    1992.9835240750  0.13E-03
  POISSON|      2        0.6834E-20      0.2242E-06    1992.9835240750  0.00E+00
  POISSON| Poisson solver converged in 2 iterations.
    17 Broy./Diag. 0.30E+00   13.6     0.00077397     -5672.2610967511 -8.96E-03
  POISSON|   iter        pres error      nabs error        E_hartree    delta E
  POISSON|      1        0.5708E-07      0.1149E-05    1992.9838095344  0.29E-03
  POISSON|      2        0.2869E-19      0.5708E-07    1992.9838095344  0.00E+00
  POISSON| Poisson solver converged in 2 iterations.
    18 Broy./Diag. 0.30E+00   13.8     0.00037561     -5672.2557526193  5.34E-03
  POISSON|   iter        pres error      nabs error        E_hartree    delta E
  POISSON|      1        0.2318E-07      0.9218E-06    1992.9838257021  0.16E-04
  POISSON|      2        0.3172E-19      0.2318E-07    1992.9838257021 -0.23E-12
  POISSON| Poisson solver converged in 2 iterations.
    19 Broy./Diag. 0.30E+00   13.5     0.00023803     -5672.2553431571  4.09E-04
  POISSON|   iter        pres error      nabs error        E_hartree    delta E
  POISSON|      1        0.8126E-08      0.7505E-06    1992.9840838582  0.26E-03
  POISSON| Poisson solver converged in 1 iteration. 
    20 Broy./Diag. 0.30E+00   12.1     0.00017918     -5672.2594644400 -4.12E-03
  POISSON|   iter        pres error      nabs error        E_hartree    delta E
  POISSON|      1        0.3112E-07      0.7975E-06    1992.9843681628  0.28E-03
  POISSON|      2        0.2202E-19      0.3112E-07    1992.9843681628  0.23E-12
  POISSON| Poisson solver converged in 2 iterations.
    21 Broy./Diag. 0.30E+00   13.6     0.00019576     -5672.2585863116  8.78E-04
  POISSON|   iter        pres error      nabs error        E_hartree    delta E
  POISSON|      1        0.5007E-08      0.1039E-05    1992.9847070664  0.34E-03
  POISSON| Poisson solver converged in 1 iteration. 
    22 Broy./Diag. 0.30E+00   12.1     0.00014234     -5672.2576798599  9.06E-04
  POISSON|   iter        pres error      nabs error        E_hartree    delta E
  POISSON|      1        0.1605E-07      0.1022E-05    1992.9850188913  0.31E-03
  POISSON|      2        0.3492E-19      0.1605E-07    1992.9850188913 -0.23E-12
  POISSON| Poisson solver converged in 2 iterations.
    23 Broy./Diag. 0.30E+00   13.8     0.00011254     -5672.2576448938  3.50E-05
  POISSON|   iter        pres error      nabs error        E_hartree    delta E
  POISSON|      1        0.1570E-07      0.8757E-06    1992.9853529140  0.33E-03
  POISSON|      2        0.2457E-19      0.1570E-07    1992.9853529140  0.23E-12
  POISSON| Poisson solver converged in 2 iterations.
    24 Broy./Diag. 0.30E+00   13.5     0.00009698     -5672.2590892632 -1.44E-03
  POISSON|   iter        pres error      nabs error        E_hartree    delta E
  POISSON|      1        0.3485E-07      0.5670E-06    1992.9855049588  0.15E-03
  POISSON|      2        0.1983E-19      0.3485E-07    1992.9855049588 -0.23E-12
  POISSON| Poisson solver converged in 2 iterations.
    25 Broy./Diag. 0.30E+00   13.6     0.00014011     -5672.2581766820  9.13E-04
  POISSON|   iter        pres error      nabs error        E_hartree    delta E
  POISSON|      1        0.7237E-07      0.4201E-06    1992.9856041690  0.99E-04
  POISSON|      2        0.1050E-20      0.7237E-07    1992.9856041690  0.00E+00
  POISSON| Poisson solver converged in 2 iterations.
    26 Broy./Diag. 0.30E+00   13.6     0.00017688     -5672.2585875768 -4.11E-04
  POISSON|   iter        pres error      nabs error        E_hartree    delta E
  POISSON|      1        0.7019E-07      0.6733E-06    1992.9857204297  0.12E-03
  POISSON|      2        0.2537E-19      0.7019E-07    1992.9857204297  0.00E+00
  POISSON| Poisson solver converged in 2 iterations.
    27 Broy./Diag. 0.30E+00   13.5     0.00015832     -5672.2578332111  7.54E-04
  POISSON|   iter        pres error      nabs error        E_hartree    delta E
  POISSON|      1        0.4756E-08      0.5436E-06    1992.9857949433  0.75E-04
  POISSON| Poisson solver converged in 1 iteration. 
    28 Broy./Diag. 0.30E+00   12.2     0.00007060     -5672.2588882930 -1.06E-03
  POISSON|   iter        pres error      nabs error        E_hartree    delta E
  POISSON|      1        0.1155E-07      0.3388E-06    1992.9858607179  0.66E-04
  POISSON|      2        0.1015E-19      0.1155E-07    1992.9858607179  0.00E+00
  POISSON| Poisson solver converged in 2 iterations.
    29 Broy./Diag. 0.30E+00   13.5     0.00005627     -5672.2591680532 -2.80E-04
  POISSON|   iter        pres error      nabs error        E_hartree    delta E
  POISSON|      1        0.5163E-08      0.4584E-06    1992.9858634962  0.28E-05
  POISSON| Poisson solver converged in 1 iteration. 
    30 Broy./Diag. 0.30E+00   12.2     0.00004796     -5672.2586003162  5.68E-04
  POISSON|   iter        pres error      nabs error        E_hartree    delta E
  POISSON|      1        0.2524E-08      0.3550E-06    1992.9858511617 -0.12E-04
  POISSON| Poisson solver converged in 1 iteration. 
    31 Broy./Diag. 0.30E+00   12.1     0.00005180     -5672.2591814024 -5.81E-04
  POISSON|   iter        pres error      nabs error        E_hartree    delta E
  POISSON|      1        0.1190E-07      0.3431E-06    1992.9858684821  0.17E-04
  POISSON|      2        0.1204E-19      0.1190E-07    1992.9858684821  0.45E-12
  POISSON| Poisson solver converged in 2 iterations.
    32 Broy./Diag. 0.30E+00   13.5     0.00004250     -5672.2596913340 -5.10E-04
  POISSON|   iter        pres error      nabs error        E_hartree    delta E
  POISSON|      1        0.8256E-09      0.1711E-06    1992.9858613021 -0.72E-05
  POISSON| Poisson solver converged in 1 iteration. 
    33 Broy./Diag. 0.30E+00   12.1     0.00003339     -5672.2595289915  1.62E-04
  POISSON|   iter        pres error      nabs error        E_hartree    delta E
  POISSON|      1        0.1973E-08      0.2574E-06    1992.9858610957 -0.21E-06
  POISSON| Poisson solver converged in 1 iteration. 
    34 Broy./Diag. 0.30E+00   12.2     0.00002368     -5672.2592415652  2.87E-04
  POISSON|   iter        pres error      nabs error        E_hartree    delta E
  POISSON|      1        0.2363E-08      0.1594E-06    1992.9858831708  0.22E-04
  POISSON| Poisson solver converged in 1 iteration. 
    35 Broy./Diag. 0.30E+00   12.2     0.00003190     -5672.2597157668 -4.74E-04
  POISSON|   iter        pres error      nabs error        E_hartree    delta E
  POISSON|      1        0.2075E-07      0.9610E-07    1992.9858887621  0.56E-05
  POISSON|      2        0.3760E-20      0.2075E-07    1992.9858887621  0.00E+00
  POISSON| Poisson solver converged in 2 iterations.
    36 Broy./Diag. 0.30E+00   13.6     0.00005064     -5672.2595031606  2.13E-04
  POISSON|   iter        pres error      nabs error        E_hartree    delta E
  POISSON|      1        0.1499E-07      0.1716E-06    1992.9859213823  0.33E-04
  POISSON|      2        0.5003E-20      0.1499E-07    1992.9859213823  0.00E+00
  POISSON| Poisson solver converged in 2 iterations.
    37 Broy./Diag. 0.30E+00   13.5     0.00004492     -5672.2596705540 -1.67E-04
  POISSON|   iter        pres error      nabs error        E_hartree    delta E
  POISSON|      1        0.6458E-08      0.1442E-06    1992.9859595066  0.38E-04
  POISSON| Poisson solver converged in 1 iteration. 
    38 Broy./Diag. 0.30E+00   12.1     0.00002297     -5672.2593976415  2.73E-04
  POISSON|   iter        pres error      nabs error        E_hartree    delta E
  POISSON|      1        0.1013E-08      0.9054E-07    1992.9859778729  0.18E-04
  POISSON| Poisson solver converged in 1 iteration. 
    39 Broy./Diag. 0.30E+00   12.2     0.00002064     -5672.2594231737 -2.55E-05
  POISSON|   iter        pres error      nabs error        E_hartree    delta E
  POISSON|      1        0.2127E-08      0.1137E-06    1992.9860184693  0.41E-04
  POISSON| Poisson solver converged in 1 iteration. 
    40 Broy./Diag. 0.30E+00   12.2     0.00001352     -5672.2595155811 -9.24E-05
  POISSON|   iter        pres error      nabs error        E_hartree    delta E
  POISSON|      1        0.3179E-08      0.1169E-06    1992.9860437226  0.25E-04
  POISSON| Poisson solver converged in 1 iteration. 
    41 Broy./Diag. 0.30E+00   12.2     0.00001167     -5672.2593415354  1.74E-04
  POISSON|   iter        pres error      nabs error        E_hartree    delta E
  POISSON|      1        0.2400E-09      0.1046E-06    1992.9860570074  0.13E-04
  POISSON| Poisson solver converged in 1 iteration. 
    42 Broy./Diag. 0.30E+00   12.1     0.00001101     -5672.2593125426  2.90E-05
  POISSON|   iter        pres error      nabs error        E_hartree    delta E
  POISSON|      1        0.2638E-08      0.1119E-06    1992.9860658613  0.89E-05
  POISSON| Poisson solver converged in 1 iteration. 
    43 Broy./Diag. 0.30E+00   12.2     0.00001044     -5672.2593959041 -8.34E-05
  POISSON|   iter        pres error      nabs error        E_hartree    delta E
  POISSON|      1        0.1999E-08      0.9287E-07    1992.9860757152  0.99E-05
  POISSON| Poisson solver converged in 1 iteration. 
    44 Broy./Diag. 0.30E+00   12.1     0.00000936     -5672.2594844975 -8.86E-05
  POISSON|   iter        pres error      nabs error        E_hartree    delta E
  POISSON|      1        0.2394E-08      0.1096E-06    1992.9860685763 -0.71E-05
  POISSON| Poisson solver converged in 1 iteration. 
    45 Broy./Diag. 0.30E+00   12.2     0.00001103     -5672.2593185922  1.66E-04
  POISSON|   iter        pres error      nabs error        E_hartree    delta E
  POISSON|      1        0.6610E-08      0.3278E-07    1992.9860679136 -0.66E-06
  POISSON| Poisson solver converged in 1 iteration. 
    46 Broy./Diag. 0.30E+00   12.2     0.00001992     -5672.2594664755 -1.48E-04
  POISSON|   iter        pres error      nabs error        E_hartree    delta E
  POISSON|      1        0.7333E-08      0.9392E-07    1992.9860644358 -0.35E-05
  POISSON| Poisson solver converged in 1 iteration. 
    47 Broy./Diag. 0.30E+00   12.2     0.00001645     -5672.2594010450  6.54E-05
  POISSON|   iter        pres error      nabs error        E_hartree    delta E
  POISSON|      1        0.1466E-08      0.7253E-07    1992.9860564521 -0.80E-05
  POISSON| Poisson solver converged in 1 iteration. 
    48 Broy./Diag. 0.30E+00   12.2     0.00000914     -5672.2594780851 -7.70E-05
  POISSON|   iter        pres error      nabs error        E_hartree    delta E
  POISSON|      1        0.1945E-08      0.4761E-07    1992.9860552520 -0.12E-05
  POISSON| Poisson solver converged in 1 iteration. 
    49 Broy./Diag. 0.30E+00   12.2     0.00000947     -5672.2594682797  9.81E-06
  POISSON|   iter        pres error      nabs error        E_hartree    delta E
  POISSON|      1        0.9174E-09      0.7672E-07    1992.9860502284 -0.50E-05
  POISSON| Poisson solver converged in 1 iteration. 
    50 Broy./Diag. 0.30E+00   12.1     0.00000645     -5672.2594360776  3.22E-05
  POISSON|   iter        pres error      nabs error        E_hartree    delta E
  POISSON|      1        0.3693E-09      0.4833E-07    1992.9860510452  0.82E-06
  POISSON| Poisson solver converged in 1 iteration. 
    51 Broy./Diag. 0.30E+00   12.1     0.00000452     -5672.2595143776 -7.83E-05
  POISSON|   iter        pres error      nabs error        E_hartree    delta E
  POISSON|      1        0.1093E-08      0.3330E-07    1992.9860558826  0.48E-05
  POISSON| Poisson solver converged in 1 iteration. 
    52 Broy./Diag. 0.30E+00   12.2     0.00000456     -5672.2594950548  1.93E-05
  POISSON|   iter        pres error      nabs error        E_hartree    delta E
  POISSON|      1        0.8027E-10      0.4454E-07    1992.9860635901  0.77E-05
  POISSON| Poisson solver converged in 1 iteration. 
    53 Broy./Diag. 0.30E+00   12.1     0.00000349     -5672.2594625932  3.25E-05
  POISSON|   iter        pres error      nabs error        E_hartree    delta E
  POISSON|      1        0.1951E-09      0.2347E-07    1992.9860689787  0.54E-05
  POISSON| Poisson solver converged in 1 iteration. 
    54 Broy./Diag. 0.30E+00   12.2     0.00000335     -5672.2594538536  8.74E-06
  POISSON|   iter        pres error      nabs error        E_hartree    delta E
  POISSON|      1        0.4352E-09      0.3261E-07    1992.9860807276  0.12E-04
  POISSON| Poisson solver converged in 1 iteration. 
    55 Broy./Diag. 0.30E+00   12.2     0.00000328     -5672.2595003918 -4.65E-05
  POISSON|   iter        pres error      nabs error        E_hartree    delta E
  POISSON|      1        0.1415E-08      0.1452E-07    1992.9860831470  0.24E-05
  POISSON| Poisson solver converged in 1 iteration. 
    56 Broy./Diag. 0.30E+00   12.2     0.00000486     -5672.2594362685  6.41E-05
  POISSON|   iter        pres error      nabs error        E_hartree    delta E
  POISSON|      1        0.1011E-08      0.1950E-07    1992.9860875804  0.44E-05
  POISSON| Poisson solver converged in 1 iteration. 
    57 Broy./Diag. 0.30E+00   12.2     0.00000357     -5672.2594619891 -2.57E-05
  POISSON|   iter        pres error      nabs error        E_hartree    delta E
  POISSON|      1        0.1277E-08      0.1687E-07    1992.9860915658  0.40E-05
  POISSON| Poisson solver converged in 1 iteration. 
    58 Broy./Diag. 0.30E+00   12.2     0.00000316     -5672.2594547843  7.20E-06
  POISSON|   iter        pres error      nabs error        E_hartree    delta E
  POISSON|      1        0.3754E-09      0.1306E-07    1992.9860926277  0.11E-05
  POISSON| Poisson solver converged in 1 iteration. 
    59 Broy./Diag. 0.30E+00   12.2     0.00000309     -5672.2594631121 -8.33E-06
  POISSON|   iter        pres error      nabs error        E_hartree    delta E
  POISSON|      1        0.2601E-09      0.1437E-07    1992.9860945993  0.20E-05
  POISSON| Poisson solver converged in 1 iteration. 
    60 Broy./Diag. 0.30E+00   12.1     0.00000188     -5672.2594713423 -8.23E-06
  POISSON|   iter        pres error      nabs error        E_hartree    delta E
  POISSON|      1        0.2192E-09      0.1418E-07    1992.9860943184 -0.28E-06
  POISSON| Poisson solver converged in 1 iteration. 
    61 Broy./Diag. 0.30E+00   12.1     0.00000129     -5672.2594576392  1.37E-05
  POISSON|   iter        pres error      nabs error        E_hartree    delta E
  POISSON|      1        0.6814E-10      0.1103E-07    1992.9860934039 -0.91E-06
  POISSON| Poisson solver converged in 1 iteration. 
    62 Broy./Diag. 0.30E+00   12.1     0.00000145     -5672.2594749275 -1.73E-05
  POISSON|   iter        pres error      nabs error        E_hartree    delta E
  POISSON|      1        0.3540E-09      0.1495E-07    1992.9860921105 -0.13E-05
  POISSON| Poisson solver converged in 1 iteration. 
    63 Broy./Diag. 0.30E+00   12.1     0.00000112     -5672.2594776988 -2.77E-06
  POISSON|   iter        pres error      nabs error        E_hartree    delta E
  POISSON|      1        0.8400E-10      0.9804E-08    1992.9860902630 -0.18E-05
  POISSON| Poisson solver converged in 1 iteration. 
    64 Broy./Diag. 0.30E+00   12.1     0.00000122     -5672.2594789190 -1.22E-06
  POISSON|   iter        pres error      nabs error        E_hartree    delta E
  POISSON|      1        0.1262E-09      0.1413E-07    1992.9860882015 -0.21E-05
  POISSON| Poisson solver converged in 1 iteration. 
    65 Broy./Diag. 0.30E+00   12.1     0.00000107     -5672.2594664628  1.25E-05
  POISSON|   iter        pres error      nabs error        E_hartree    delta E
  POISSON|      1        0.1785E-09      0.6996E-08    1992.9860879174 -0.28E-06
  POISSON| Poisson solver converged in 1 iteration. 
    66 Broy./Diag. 0.30E+00   12.2     0.00000132     -5672.2594880285 -2.16E-05
  POISSON|   iter        pres error      nabs error        E_hartree    delta E
  POISSON|      1        0.5067E-09      0.6127E-08    1992.9860873794 -0.54E-06
  POISSON| Poisson solver converged in 1 iteration. 
    67 Broy./Diag. 0.30E+00   12.2     0.00000126     -5672.2594726012  1.54E-05
  POISSON|   iter        pres error      nabs error        E_hartree    delta E
  POISSON|      1        0.3264E-09      0.8764E-08    1992.9860873199 -0.60E-07
  POISSON| Poisson solver converged in 1 iteration. 
    68 Broy./Diag. 0.30E+00   12.2     0.00000106     -5672.2594757873 -3.19E-06
  POISSON|   iter        pres error      nabs error        E_hartree    delta E
  POISSON|      1        0.3186E-09      0.6119E-08    1992.9860879726  0.65E-06
  POISSON| Poisson solver converged in 1 iteration. 
    69 Broy./Diag. 0.30E+00   12.2     0.00000101     -5672.2594729649  2.82E-06
  POISSON|   iter        pres error      nabs error        E_hartree    delta E
  POISSON|      1        0.4881E-11      0.5986E-08    1992.9860884132  0.44E-06
  POISSON| Poisson solver converged in 1 iteration. 
    70 Broy./Diag. 0.30E+00   12.1     0.00000078     -5672.2594694095  3.56E-06

  *** SCF run converged in    70 steps ***


  Electronic density on regular grids:      -2159.9999999992        0.0000000008
  Core density on regular grids:             2159.9999999995       -0.0000000005
  Total charge density on r-space grids:        0.0000000003
  Total charge density g-space grids:           0.0000000003

  Overlap energy of the core charge distribution:               0.00003239159733
  Self energy of the core charge distribution:              -9891.63555570741482
  Core Hamiltonian energy:                                   3202.24442880118386
  Hartree energy:                                            1992.98608841315604
  Electric enthalpy:                                         1992.98608841315604
  Exchange-correlation energy:                               -971.12411949509942
[...]
    191      1      Pt          0.00241592     0.01016169     0.00215312
    192      1      Pt         -0.00059942    -0.00631519    -0.00936799
    193      1      Pt         -0.00817890    -0.00533637    -0.00151714
    194      1      Pt         -0.02132220    -0.00342608     0.00711679
    195      1      Pt          0.01308873    -0.01184328    -0.00780805
    196      1      Pt         -0.00205192    -0.00760148    -0.00569207
    197      1      Pt         -0.00609390    -0.00853761     0.00217947
    198      1      Pt          0.00593305    -0.00700087     0.01213474
    199      1      Pt          0.00102330     0.00263232    -0.00502430
    200      1      Pt          0.00900777     0.01012459     0.00618461
    201      1      Pt          0.00010885     0.02008871     0.00667143
    202      1      Pt         -0.01256597     0.00493236     0.00408190
    203      1      Pt          0.00279297     0.00263106    -0.01084986
    204      1      Pt          0.01594910     0.01016150    -0.00763154
    205      1      Pt          0.00005715    -0.01245143    -0.00504809
    206      1      Pt          0.00059584    -0.01506436     0.00012075
    207      1      Pt         -0.01300459    -0.00804136    -0.00433215
    208      1      Pt         -0.00441268     0.01129128     0.00258777
    209      1      Pt          0.00278921    -0.00033269    -0.00519227
    210      1      Pt         -0.00218865    -0.00616243     0.00663387
    211      1      Pt         -0.02287474     0.00001218     0.00250084
    212      1      Pt          0.00721309     0.00900275     0.01416392
    213      1      Pt          0.00654112     0.00511995    -0.00832157
    214      1      Pt         -0.00770523    -0.01680986    -0.00818009
    215      1      Pt         -0.00467851    -0.01414535    -0.00031085
    216      1      Pt          0.01359282    -0.00357644     0.00630169
 SUM OF ATOMIC FORCES           0.00000726     0.00002104     0.00014507     0.00014677

 -------------------------------------------------------------------------------
 -                                                                             -
 -                                DBCSR STATISTICS                             -
 -                                                                             -
 -------------------------------------------------------------------------------
 COUNTER                                    TOTAL       BLAS       SMM       ACC
 flops    20 x    12 x    20            447897600       0.0%    100.0%      0.0%
 flops    20 x    32 x    20          58525286400       0.0%    100.0%      0.0%
 flops    20 x    20 x   204         275382374400       0.0%    100.0%      0.0%
 flops    20 x    20 x   224         302380646400       0.0%    100.0%      0.0%
 flops    20 x    20 x   192        1555100467200       0.0%    100.0%      0.0%
 flops inhomo. stacks                           0       0.0%      0.0%      0.0%
 flops total                         2.191837E+12       0.0%    100.0%      0.0%
 flops max/rank                     70.341581E+09       0.0%    100.0%      0.0%
 matmuls inhomo. stacks                         0       0.0%      0.0%      0.0%
 matmuls total                           15831936       0.0%    100.0%      0.0%
 number of processed stacks                 20864       0.0%    100.0%      0.0%
 average stack size                                     0.0     758.8       0.0
 marketing flops                     3.123002E+12
 -------------------------------------------------------------------------------
 # multiplications                             73
 max memory usage/rank               1.828811E+09
 # max total images/rank                        2
 # max 3D layers                                1
 # MPI messages exchanged                   30368
 MPI messages size (bytes):
  total size                        40.524366E+09
  min size                         829.440000E+03
  max size                           4.665600E+06
  average size                       1.334443E+06
 MPI breakdown and total messages size (bytes):
             size <=      128                   0                        0
       128 < size <=     8192                   0                        0
      8192 < size <=    32768                   0                        0
     32768 < size <=   131072                   0                        0
    131072 < size <=  4194304               30144              39479270400
   4194304 < size <= 16777216                 224               1045094400
  16777216 < size                               0                        0
 -------------------------------------------------------------------------------

 *** WARNING in dbcsr_mm.F:290 :: Using a non-square number of MPI ranks ***
 *** might lead to poor performance. Used ranks: 32 Suggested: 36 64     ***

 -------------------------------------------------------------------------------
 -                                                                             -
 -                      DBCSR MESSAGE PASSING PERFORMANCE                      -
 -                                                                             -
 -------------------------------------------------------------------------------
 ROUTINE             CALLS      AVE VOLUME [Bytes]
 MP_Bcast                6                     12.
 MP_Allreduce          534                      9.
 MP_Alltoall          2025                1276403.
 MP_ISend             2336                 577445.
 MP_IRecv             2336                 560428.
 -------------------------------------------------------------------------------

 -------------------------------------------------------------------------------
 -                                                                             -
 -                                DBM STATISTICS                               -
 -                                                                             -
 -------------------------------------------------------------------------------
    M  x    N  x    K                                          COUNT     PERCENT
 -------------------------------------------------------------------------------

 -------------------------------------------------------------------------------
 -                                                                             -
 -                                GRID STATISTICS                              -
 -                                                                             -
 -------------------------------------------------------------------------------
 LP    KERNEL             BACKEND                              COUNT     PERCENT
 4     collocate general  REF                               24181109      49.97%
 4     integrate general  REF                               23840530      49.27%
 5     integrate general  REF                                 340579       0.70%
 0     collocate general  REF                                  13824       0.03%
 0     integrate general  REF                                   6912       0.01%
 1     integrate general  REF                                   6912       0.01%
 -------------------------------------------------------------------------------

 MEMORY| Estimated peak process memory [MiB]                                2195

 -------------------------------------------------------------------------------
 ----                             MULTIGRID INFO                            ----
 -------------------------------------------------------------------------------
 count for grid        1:          17578          cutoff [a.u.]          200.00
 count for grid        2:         177652          cutoff [a.u.]           66.67
 count for grid        3:         109710          cutoff [a.u.]           22.22
 count for grid        4:         155287          cutoff [a.u.]            7.41
 total gridlevel count  :         460227

 -------------------------------------------------------------------------------
 -                                                                             -
 -                         MESSAGE PASSING PERFORMANCE                         -
 -                                                                             -
 -------------------------------------------------------------------------------

 ROUTINE             CALLS      AVE VOLUME [Bytes]
 MP_Group                4
 MP_Bcast             1784                 163237.
 MP_Allreduce         1728                   1466.
 MP_Sync                76
 MP_Alltoall          3433               49303624.
 MP_SendRecv           124                  14958.
 MP_ISendRecv         8804                 214800.
 MP_Wait             21326
 MP_comm_split           1
 MP_ISend            11228                 714282.
 MP_IRecv            11228                 714282.
 MP_Recv               192                1105920.
 MP_Write_All            3                4213860.
 -------------------------------------------------------------------------------


 -------------------------------------------------------------------------------
 -                                                                             -
 -                           R E F E R E N C E S                               -
 -                                                                             -
 -------------------------------------------------------------------------------
 
 CP2K version 2022.1, the CP2K developers group (2022).
 CP2K is freely available from https://www.cp2k.org/ .

 Kuehne,Thomas D.; Iannuzzi,Marcella; Del Ben,Mauro;
 Rybkin,Vladimir V.; Seewald,Patrick; Stein,Frederick; Laino,Teodoro;
 Khaliullin,Rustam Z.; Schuett,Ole; Schiffmann,Florian; Golze,Dorothea;
 Wilhelm,Jan; Chulkov,Sergey; Bani-Hashemian,Mohammad Hossein;
 Weber,Valery; Borstnik,Urban; Taillefumier,Mathieu;
 Jakobovits,Alice Shoshana; Lazzaro,Alfio; Pabst,Hans; Mueller,Tiziano;
 Schade,Robert; Guidon,Manuel; Andermatt,Samuel; Holmberg,Nico;
 Schenter,Gregory K.; Hehn,Anna; Bussy,Augustin; Belleflamme,Fabian;
 Tabacchi,Gloria; Gloess,Andreas; Lass,Michael; Bethune,Iain;
 Mundy,Christopher J.; Plessl,Christian; Watkins,Matt;
 VandeVondele,Joost; Krack,Matthias; Hutter,Juerg. 
 The Journal of Chemical Physics, 152 (19), (2020). 
 CP2K: An electronic structure and molecular dynamics software package -
 Quickstep: Efficient and accurate electronic structure calculations.
 https://doi.org/10.1063/5.0007045

 Goerigk, Lars; Hansen, Andreas; Bauer, Christoph; Ehrlich, Stephan;
 Najibi, Asim; Grimme, Stefan. , 19 (48), (2017). 
 A look at the density functional theory zoo with the advanced GMTKN55 database
 for general main group thermochemistry, kinetics and noncovalent interactions.
 https://doi.org/10.1039/C7CP04913G

 Bani-Hashemian, MH; Bruck, S; Luisier, M; VandeVondele, J. 
 JOURNAL OF CHEMICAL PHYSICS, 144 (4), 044113 (2016). 
 A generalized Poisson solver for first-principles device simulations.
 https://doi.org/10.1063/1.4940796

 Schuett, Ole; Messmer, Peter; Hutter, Juerg; VandeVondele, Joost. 
 Electronic Structure Calculations on Graphics Processing Units, John
 Wiley & Sons, Ltd, 173-190 (2016). 
 GPU-Accelerated Sparse Matrix-Matrix Multiplication for
 Linear Scaling Density Functional Theory.
 https://doi.org/10.1002/9781118670712.ch8

 Heinecke, A; Henry, G; Hutchinson, M; Pabst, H. 
 Proceedings of Intl. Supercomputing Conference, 981-991 (2016). 
 LIBXSMM: Accelerating Small Matrix Multiplications
 by Runtime Code Generation.
 https://doi.org/10.1109/SC.2016.83

 Borstnik, U; VandeVondele, J; Weber, V; Hutter, J. 
 PARALLEL COMPUTING, 40 (5-6), 47-58 (2014). 
 Sparse matrix multiplication: The distributed block-compressed sparse
 row library.
 https://doi.org/10.1016/j.parco.2014.03.012

 Hutter, J; Iannuzzi, M; Schiffmann, F; VandeVondele, J. 
 WIREs Comput Mol Sci., 4 (1), 15-25 (2014). 
 CP2K: atomistic simulations of condensed matter systems.
 https://doi.org/10.1002/wcms.1159

 Marek, A; Blum, V; Johanni, R; Havu, V; Lang, B; Auckenthaler, T;
 Heinecke, A; Bungartz, H; Lederer, H. 
 Journal of Physics: Condensed Matter, 26 (21), (2014). 
 The ELPA library: scalable parallel eigenvalue solutions for
 electronic structure
 theory and computational science.
 https://doi.org/10.1088/0953-8984/26/21/213201

 Grimme, S; Ehrlich, S; Goerigk, L. 
 JOURNAL OF COMPUTATIONAL CHEMISTRY, 32, 1456 (2011). 
 Effect of the damping function in dispersion corrected density functional theory.
 https://doi.org/10.1002/jcc.21759

 Grimme, S; Antony, J; Ehrlich, S; Krieg, H. 
 JOURNAL OF CHEMICAL PHYSICS, 132 (15), 154104 (2010). 
 A consistent and accurate ab initio parametrization of density
 functional dispersion correction (DFT-D) for the 94 elements H-Pu.
 https://doi.org/10.1063/1.3382344

 VandeVondele, J; Hutter, J. 
 JOURNAL OF CHEMICAL PHYSICS, 127 (11), 114105 (2007). 
 Gaussian basis sets for accurate calculations on molecular systems in
 gas and condensed phases.
 https://doi.org/10.1063/1.2770708

 Krack, M. 
 THEORETICAL CHEMISTRY ACCOUNTS, 114 (1-3), 145-152 (2005). 
 Pseudopotentials for H to Kr optimized for gradient-corrected
 exchange-correlation functionals.
 https://doi.org/10.1007/s00214-005-0655-y

 VandeVondele, J; Krack, M; Mohamed, F; Parrinello, M; Chassaing, T;
 Hutter, J. COMPUTER PHYSICS COMMUNICATIONS, 167 (2), 103-128 (2005). 
 QUICKSTEP: Fast and accurate density functional calculations using a
 mixed Gaussian and plane waves approach.
 https://doi.org/10.1016/j.cpc.2004.12.014

 Frigo, M; Johnson, SG. 
 PROCEEDINGS OF THE IEEE, 93 (2), 216-231 (2005). 
 The design and implementation of FFTW3.
 https://doi.org/10.1109/JPROC.2004.840301

 Hartwigsen, C; Goedecker, S; Hutter, J. 
 PHYSICAL REVIEW B, 58 (7), 3641-3662 (1998). 
 Relativistic separable dual-space Gaussian pseudopotentials from H to Rn.
 https://doi.org/10.1103/PhysRevB.58.3641

 Lippert, G; Hutter, J; Parrinello, M. 
 MOLECULAR PHYSICS, 92 (3), 477-487 (1997). 
 A hybrid Gaussian and plane wave density functional scheme.
 https://doi.org/10.1080/002689797170220

 Perdew, JP; Burke, K; Ernzerhof, M. 
 PHYSICAL REVIEW LETTERS, 77 (18), 3865-3868 (1996). 
 Generalized gradient approximation made simple.
 https://doi.org/10.1103/PhysRevLett.77.3865

 Goedecker, S; Teter, M; Hutter, J. 
 PHYSICAL REVIEW B, 54 (3), 1703-1710 (1996). 
 Separable dual-space Gaussian pseudopotentials.
 https://doi.org/10.1103/PhysRevB.54.1703


 -------------------------------------------------------------------------------
 -                                                                             -
 -                                T I M I N G                                  -
 -                                                                             -
 -------------------------------------------------------------------------------
 SUBROUTINE                       CALLS  ASD         SELF TIME        TOTAL TIME
                                MAXIMUM       AVERAGE  MAXIMUM  AVERAGE  MAXIMUM
 CP2K                                 1  1.0    0.019    0.040  912.974  912.975
 qs_forces                            1  2.0    0.001    0.001  912.562  912.563
 qs_energies                          1  3.0    0.000    0.000  899.729  899.732
 scf_env_do_scf                       1  4.0    0.000    0.001  891.271  891.363
 scf_env_do_scf_inner_loop           70  5.0    0.003    0.006  891.268  891.360
 rebuild_ks_matrix                   71  7.0    0.000    0.000  564.551  564.582
 qs_ks_build_kohn_sham_matrix        71  8.0    0.010    0.012  564.551  564.582
 qs_ks_update_qs_env                 70  6.0    0.001    0.001  556.199  556.230
 pw_transfer                       3276 12.1    0.252    0.340  315.662  318.852
 fft_wrap_pw1pw2                   3276 13.1    0.035    0.041  315.410  318.581
 fft_wrap_pw1pw2_200               2850 14.4   26.680   29.895  312.290  315.273
 pw_poisson_solve                    71  9.0    0.021    0.029  268.682  268.722
 implicit_poisson_solver_mixed_      71 10.0    7.199    7.811  252.485  252.657
 fft3d_ps                          3276 15.1  134.159  145.631  235.459  239.627
 qs_rho_update_rho_low               71  6.0    0.001    0.001  215.420  215.441
 calculate_rho_elec                  71  7.0    0.389    0.419  215.420  215.440
 sum_up_and_integrate                71  9.0    1.106    1.205  202.541  202.573
 integrate_v_rspace                  71 10.0    0.002    0.002  201.434  201.559
 grid_collocate_task_list            71  8.0   95.288  186.128   95.288  186.128
 derive_fft                         342 12.2    0.025    0.036  177.236  178.573
 grid_integrate_task_list            71 11.0   88.346  172.626   88.346  172.626
 rs_pw_transfer                     572 10.5    0.007    0.007  119.177  149.039
 density_rs2pw                       71  8.0    0.005    0.005  118.153  148.330
 apply_P_operator                   271 11.2    2.532    2.887  143.157  144.093
 mp_waitany                       11228 12.4   99.404  129.003   99.404  129.003
 rs_pw_transfer_RS2PW_200            73 10.0    4.095    4.774   97.680  127.537
 mp_alltoall_d11v                  1010 10.3   87.070  114.774   87.070  114.774
 rs_gather_matrices                  71 11.0    0.267    0.328   85.726  113.421
 qs_scf_new_mos                      70  6.0    0.005    0.009   88.356   88.443
 qs_vxc_create                       71  9.0    0.002    0.003   83.943   84.942
 xc_vxc_pw_create                    71 10.0    1.895    2.344   83.940   84.940
 eigensolver                         70  7.0    0.006    0.009   79.681   79.766
 x_to_yz                           2050 16.3   44.598   52.002   69.225   72.841
 mp_alltoall_z22v                  3276 17.1   43.848   65.771   43.848   65.771
 xc_pw_derive                       426 12.0    0.007    0.009   56.667   59.872
 apply_poisson_operator_fft          71 11.0    0.001    0.001   54.100   54.398
 cp_fm_diag_elpa                     71  8.0    0.001    0.001   50.723   50.852
 cp_fm_diag_elpa_base                71  9.0   49.657   49.789   50.596   50.661
 yz_to_x                           1226 15.8   12.777   13.419   31.998   45.130
 xc_rho_set_and_dset_create          71 11.0    0.808    1.015   43.775   44.840
 apply_inv_laplace_operator_fft     173 11.6    1.448    1.570   38.420   39.612
 xc_pw_divergence                    71 11.0    0.004    0.005   37.160   39.176
 pw_scatter_p                      2050 15.3   34.588   38.643   34.588   38.643
 ps_implicit_compute_veps            71 11.0    0.859    1.038   37.476   38.269
 gspace_mixing                       69  6.0    0.379    0.406   33.786   33.786
 pw_derive                         1452 13.1   27.707   28.722   27.707   28.722
 cp_fm_triangular_multiply          210  8.0   28.108   28.329   28.108   28.329
 potential_pw2rs                     71 11.0    0.057    0.065   27.349   27.462
 ps_implicit_compute_error_fft      100 11.0    1.851    1.973   24.747   26.489
 broyden_mixing                      69  7.0   24.660   25.074   25.341   25.569
 pw_gather_p                       1226 14.8   18.328   18.795   18.328   18.795
 -------------------------------------------------------------------------------

 The number of warnings for this run is : 1
 
 -------------------------------------------------------------------------------
  **** **** ******  **  PROGRAM ENDED AT                 2023-12-03 04:56:19.945
 ***** ** ***  *** **   PROGRAM RAN ON                                     cu042
 **    ****   ******    PROGRAM RAN BY                                     jxzhu
 ***** **    ** ** **   PROGRAM PROCESS ID                                 30903
  **** **  *******  **  PROGRAM STOPPED IN /public/home/jxzhu/tmp_calc/04c0855f9
                                           8753fac23fde4df51ba20f3741a9e9a/calc/
                                           task.001.000014
