 DBCSR| CPU Multiplication driver                                           XSMM
 DBCSR| Multrec recursion limit                                              512
 DBCSR| Multiplication stack size                                           1000
 DBCSR| Maximum elements for images                                    UNLIMITED
 DBCSR| Multiplicative factor virtual images                                   1
 DBCSR| Use multiplication densification                                       T
 DBCSR| Multiplication size stacks                                             3
 DBCSR| Use memory pool for CPU allocation                                     F
 DBCSR| Number of 3D layers                                               SINGLE
 DBCSR| Use MPI memory allocation                                              F
 DBCSR| Use RMA algorithm                                                      F
 DBCSR| Use Communication thread                                               T
 DBCSR| Communication thread load                                             87
 DBCSR| MPI: My node id                                                        0
 DBCSR| MPI: Number of nodes                                                 128
 DBCSR| OMP: Current number of threads                                         1
 DBCSR| OMP: Max number of threads                                             1
 DBCSR| Split modifier for TAS multiplication algorithm                  1.0E+00


  **** **** ******  **  PROGRAM STARTED AT               2023-12-01 20:44:29.849
 ***** ** ***  *** **   PROGRAM STARTED ON                                 cu384
 **    ****   ******    PROGRAM STARTED BY                                 jxzhu
 ***** **    ** ** **   PROGRAM PROCESS ID                                 56094
  **** **  *******  **  PROGRAM STARTED IN /public/home/jxzhu/tmp_calc/b03d6c6b9
                                           93b6252a26610ffedbc6831f50ea84c/calc/
                                           000000.000/search_lo.000000

 CP2K| version string:                                       CP2K version 2022.1
 CP2K| source code revision number:                                  git:2caeb6f
 CP2K| cp2kflags: omp libint fftw3 libxc elpa parallel mpi3 scalapack cosma xsmm
 CP2K|             plumed2 spglib mkl sirius libvori libbqb
 CP2K| is freely available from                            https://www.cp2k.org/
 CP2K| Program compiled at                           Mon Jul 3 17:37:06 CST 2023
 CP2K| Program compiled on                                                 mu003
 CP2K| Program compiled for                                                local
 CP2K| Data directory path                             /public/home/jxzhu/basis/
 CP2K| Input file name                                                 input.inp
 
 GLOBAL| Force Environment number                                              1
 GLOBAL| Basis set file name                                        BASIS_MOLOPT
 GLOBAL| Potential file name                                      GTH_POTENTIALS
 GLOBAL| MM Potential file name                                     MM_POTENTIAL
 GLOBAL| Coordinate file name                                          coord.xyz
 GLOBAL| Method name                                                        CP2K
 GLOBAL| Project name                                                       cp2k
 GLOBAL| Run type                                                   ENERGY_FORCE
 GLOBAL| FFT library                                                       FFTW3
 GLOBAL| Diagonalization library                                            ELPA
 GLOBAL| Minimum number of eigenvectors for ELPA usage                        16
 GLOBAL| Orthonormality check for eigenvectors                          DISABLED
 GLOBAL| Matrix multiplication library                                     COSMA
 GLOBAL| All-to-all communication in single precision                          F
 GLOBAL| FFTs using library dependent lengths                                  T
 GLOBAL| Grid backend                                                       AUTO
 GLOBAL| Global print level                                               MEDIUM
 GLOBAL| MPI I/O enabled                                                       T
 GLOBAL| Total number of message passing processes                           128
 GLOBAL| Number of threads for this process                                    1
 GLOBAL| This output is from process                                           0
 GLOBAL| Stack size for threads created by OpenMP (OMP_STACKSIZE)        default
 GLOBAL| CPU model name                 Intel(R) Xeon(R) Gold 6338 CPU @ 2.00GHz
 GLOBAL| CPUID                                                              1003

 MEMORY| system memory details [Kb]
 MEMORY|                        rank 0           min           max       average
 MEMORY| MemTotal            263619172     263619172     263619172     263619172
 MEMORY| MemFree             215795820     198859880     215795944     207327880
 MEMORY| Buffers                  3320          3320          3320          3320
 MEMORY| Cached                1252648       1252648       1274336       1263492
 MEMORY| Slab                  1432696       1432696       1810132       1621414
 MEMORY| SReclaimable           237924        237924        243388        240656
 MEMORY| MemLikelyFree       217289712     200380924     217289836     208835348


 *** Fundamental physical constants (SI units) ***

 *** Literature: B. J. Mohr and B. N. Taylor,
 ***             CODATA recommended values of the fundamental physical
 ***             constants: 2006, Web Version 5.1
 ***             http://physics.nist.gov/constants

 Speed of light in vacuum [m/s]                             2.99792458000000E+08
 Magnetic constant or permeability of vacuum [N/A**2]       1.25663706143592E-06
 Electric constant or permittivity of vacuum [F/m]          8.85418781762039E-12
 Planck constant (h) [J*s]                                  6.62606896000000E-34
 Planck constant (h-bar) [J*s]                              1.05457162825177E-34
 Elementary charge [C]                                      1.60217648700000E-19
 Electron mass [kg]                                         9.10938215000000E-31
 Electron g factor [ ]                                     -2.00231930436220E+00
 Proton mass [kg]                                           1.67262163700000E-27
 Fine-structure constant                                    7.29735253760000E-03
 Rydberg constant [1/m]                                     1.09737315685270E+07
 Avogadro constant [1/mol]                                  6.02214179000000E+23
 Boltzmann constant [J/K]                                   1.38065040000000E-23
 Atomic mass unit [kg]                                      1.66053878200000E-27
 Bohr radius [m]                                            5.29177208590000E-11

 *** Conversion factors ***

 [u] -> [a.u.]                                              1.82288848426455E+03
 [Angstrom] -> [Bohr] = [a.u.]                              1.88972613288564E+00
 [a.u.] = [Bohr] -> [Angstrom]                              5.29177208590000E-01
 [a.u.] -> [s]                                              2.41888432650478E-17
 [a.u.] -> [fs]                                             2.41888432650478E-02
 [a.u.] -> [J]                                              4.35974393937059E-18
 [a.u.] -> [N]                                              8.23872205491840E-08
 [a.u.] -> [K]                                              3.15774647902944E+05
 [a.u.] -> [kJ/mol]                                         2.62549961709828E+03
 [a.u.] -> [kcal/mol]                                       6.27509468713739E+02
 [a.u.] -> [Pa]                                             2.94210107994716E+13
 [a.u.] -> [bar]                                            2.94210107994716E+08
 [a.u.] -> [atm]                                            2.90362800883016E+08
 [a.u.] -> [eV]                                             2.72113838565563E+01
 [a.u.] -> [Hz]                                             6.57968392072181E+15
 [a.u.] -> [1/cm] (wave numbers)                            2.19474631370540E+05
 [a.u./Bohr**2] -> [1/cm]                                   5.14048714338585E+03
 

 CELL_TOP| Volume [angstrom^3]:                                     17614.982639
 CELL_TOP| Vector a [angstrom    16.869     0.000     0.000   |a| =    16.869000
 CELL_TOP| Vector b [angstrom    -8.434    14.609     0.000   |b| =    16.869015
 CELL_TOP| Vector c [angstrom     0.000     0.000    71.478   |c| =    71.478000
 CELL_TOP| Angle (b,c), alpha [degree]:                                90.000000
 CELL_TOP| Angle (a,c), beta  [degree]:                                90.000000
 CELL_TOP| Angle (a,b), gamma [degree]:                               119.999970
 CELL_TOP| Numerically orthorhombic:                                          NO
 
 GENERATE|  Preliminary Number of Bonds generated:                             0
 GENERATE|  Achieved consistency in connectivity generation.

 CELL| Volume [angstrom^3]:                                         17614.982639
 CELL| Vector a [angstrom]:      16.869     0.000     0.000   |a| =    16.869000
 CELL| Vector b [angstrom]:      -8.434    14.609     0.000   |b| =    16.869015
 CELL| Vector c [angstrom]:       0.000     0.000    71.478   |c| =    71.478000
 CELL| Angle (b,c), alpha [degree]:                                    90.000000
 CELL| Angle (a,c), beta  [degree]:                                    90.000000
 CELL| Angle (a,b), gamma [degree]:                                   119.999970
 CELL| Numerically orthorhombic:                                              NO

 CELL_REF| Volume [angstrom^3]:                                     17614.982639
 CELL_REF| Vector a [angstrom    16.869     0.000     0.000   |a| =    16.869000
 CELL_REF| Vector b [angstrom    -8.434    14.609     0.000   |b| =    16.869015
 CELL_REF| Vector c [angstrom     0.000     0.000    71.478   |c| =    71.478000
 CELL_REF| Angle (b,c), alpha [degree]:                                90.000000
 CELL_REF| Angle (a,c), beta  [degree]:                                90.000000
 CELL_REF| Angle (a,b), gamma [degree]:                               119.999970
 CELL_REF| Numerically orthorhombic:                                          NO

 *******************************************************************************
 *******************************************************************************
 **                                                                           **
 **     #####                         ##              ##                      **
 **    ##   ##            ##          ##              ##                      **
 **   ##     ##                       ##            ######                    **
 **   ##     ##  ##   ##  ##   #####  ##  ##   ####   ##    #####    #####    **
 **   ##     ##  ##   ##  ##  ##      ## ##   ##      ##   ##   ##  ##   ##   **
 **   ##  ## ##  ##   ##  ##  ##      ####     ###    ##   ######   ######    **
 **    ##  ###   ##   ##  ##  ##      ## ##      ##   ##   ##       ##        **
 **     #######   #####   ##   #####  ##  ##  ####    ##    #####   ##        **
 **           ##                                                    ##        **
 **                                                                           **
 **                                                ... make the atoms dance   **
 **                                                                           **
 **            Copyright (C) by CP2K developers group (2000-2022)             **
 **                      J. Chem. Phys. 152, 194103 (2020)                    **
 **                                                                           **
 *******************************************************************************

 DFT| Spin restricted Kohn-Sham (RKS) calculation                            RKS
 DFT| Multiplicity                                                             1
 DFT| Number of spin states                                                    1
 DFT| Charge                                                                   0
 DFT| Self-interaction correction (SIC)                                       NO
 DFT| Cutoffs: density                                              1.000000E-10
 DFT|          gradient                                             1.000000E-10
 DFT|          tau                                                  1.000000E-10
 DFT|          cutoff_smoothing_range                               0.000000E+00
 DFT| XC density smoothing                                                  NONE
 DFT| XC derivatives                                                          PW

 FUNCTIONAL| PBE:
 FUNCTIONAL| J.P.Perdew, K.Burke, M.Ernzerhof, Phys. Rev. Letter, vol. 77, n 18,
 FUNCTIONAL|  pp. 3865-3868, (1996){spin unpolarized}                           

 vdW POTENTIAL|                                                   Pair Potential
 vdW POTENTIAL|          DFT-D3 (Version 3.1)
 vdW POTENTIAL|          Potential Form: S. Grimme et al, JCP 132: 154104 (2010)
 vdW POTENTIAL|          Zero Damping
 vdW POTENTIAL|          Cutoff Radius [Bohr]:                             20.00
 vdW POTENTIAL|          s6 Scaling Factor:                               1.0000
 vdW POTENTIAL|          sr6 Scaling Factor:                              1.2170
 vdW POTENTIAL|          s8 Scaling Factor:                               0.7220
 vdW POTENTIAL|          Cutoff for CN calculation:                   0.1000E-05

 QS| Method:                                                                 GPW
 QS| Density plane wave grid type                        NON-SPHERICAL FULLSPACE
 QS| Number of grid levels:                                                    4
 QS| Density cutoff [a.u.]:                                                200.0
 QS| Multi grid cutoff [a.u.]: 1) grid level                               200.0
 QS|                           2) grid level                                66.7
 QS|                           3) grid level                                22.2
 QS|                           4) grid level                                 7.4
 QS| Grid level progression factor:                                          3.0
 QS| Relative density cutoff [a.u.]:                                        20.0
 QS| Interaction thresholds: eps_pgf_orb:                                3.2E-07
 QS|                         eps_filter_matrix:                          0.0E+00
 QS|                         eps_core_charge:                            1.0E-15
 QS|                         eps_rho_gspace:                             1.0E-13
 QS|                         eps_rho_rspace:                             1.0E-13
 QS|                         eps_gvg_rspace:                             3.2E-07
 QS|                         eps_ppl:                                    1.0E-02
 QS|                         eps_ppnl:                                   3.2E-09


 ATOMIC KIND INFORMATION

  1. Atomic kind: O                                     Number of atoms:      97

     Orbital Basis Set                                        DZVP-MOLOPT-SR-GTH

       Number of orbital shell sets:                                           1
       Number of orbital shells:                                               5
       Number of primitive Cartesian functions:                                5
       Number of Cartesian basis functions:                                   14
       Number of spherical basis functions:                                   13
       Norm type:                                                              2

       Normalised Cartesian orbitals:

                        Set   Shell   Orbital            Exponent    Coefficient

                          1       1    2s               10.389228       0.396646
                                                         3.849621       0.208811
                                                         1.388401      -0.301641
                                                         0.496955      -0.274061
                                                         0.162492      -0.033677

                          1       2    3s               10.389228       0.303673
                                                         3.849621       0.240943
                                                         1.388401      -0.313066
                                                         0.496955      -0.043055
                                                         0.162492       0.213991

                          1       3    3px              10.389228      -1.530415
                                                         3.849621      -1.371928
                                                         1.388401      -0.761951
                                                         0.496955      -0.253695
                                                         0.162492      -0.035541
                          1       3    3py              10.389228      -1.530415
                                                         3.849621      -1.371928
                                                         1.388401      -0.761951
                                                         0.496955      -0.253695
                                                         0.162492      -0.035541
                          1       3    3pz              10.389228      -1.530415
                                                         3.849621      -1.371928
                                                         1.388401      -0.761951
                                                         0.496955      -0.253695
                                                         0.162492      -0.035541

                          1       4    4px              10.389228      -0.565392
                                                         3.849621      -0.038231
                                                         1.388401      -0.382373
                                                         0.496955       0.179070
                                                         0.162492       0.122714
                          1       4    4py              10.389228      -0.565392
                                                         3.849621      -0.038231
                                                         1.388401      -0.382373
                                                         0.496955       0.179070
                                                         0.162492       0.122714
                          1       4    4pz              10.389228      -0.565392
                                                         3.849621      -0.038231
                                                         1.388401      -0.382373
                                                         0.496955       0.179070
                                                         0.162492       0.122714

                          1       5    4dx2             10.389228       1.867377
                                                         3.849621       0.670994
                                                         1.388401       1.353441
                                                         0.496955       0.273538
                                                         0.162492       0.006620
                          1       5    4dxy             10.389228       3.234392
                                                         3.849621       1.162195
                                                         1.388401       2.344229
                                                         0.496955       0.473781
                                                         0.162492       0.011466
                          1       5    4dxz             10.389228       3.234392
                                                         3.849621       1.162195
                                                         1.388401       2.344229
                                                         0.496955       0.473781
                                                         0.162492       0.011466
                          1       5    4dy2             10.389228       1.867377
                                                         3.849621       0.670994
                                                         1.388401       1.353441
                                                         0.496955       0.273538
                                                         0.162492       0.006620
                          1       5    4dyz             10.389228       3.234392
                                                         3.849621       1.162195
                                                         1.388401       2.344229
                                                         0.496955       0.473781
                                                         0.162492       0.011466
                          1       5    4dz2             10.389228       1.867377
                                                         3.849621       0.670994
                                                         1.388401       1.353441
                                                         0.496955       0.273538
                                                         0.162492       0.006620

       Atomic covalent radius [Angstrom]:                                  0.730

       Atomic van der Waals radius [Angstrom]:                             1.520

     GTH Potential information for                                    GTH-PBE-q6

       Description:                       Goedecker-Teter-Hutter pseudopotential
                                           Goedecker et al., PRB 54, 1703 (1996)
                                          Hartwigsen et al., PRB 58, 3641 (1998)
                                                      Krack, TCA 114, 145 (2005)

       Gaussian exponent of the core charge distribution:               8.360253
       Electronic configuration (s p d ...):                               2   4

       Parameters of the local part of the GTH pseudopotential:

                          rloc        C1          C2          C3          C4
                        0.244554  -16.667215    2.487311

       Parameters of the non-local part of the GTH pseudopotential:

                   l      r(l)      h(i,j,l)

                   0    0.220956   18.337458
                   1    0.211332

  2. Atomic kind: H                                     Number of atoms:     194

     Orbital Basis Set                                        DZVP-MOLOPT-SR-GTH

       Number of orbital shell sets:                                           1
       Number of orbital shells:                                               3
       Number of primitive Cartesian functions:                                5
       Number of Cartesian basis functions:                                    5
       Number of spherical basis functions:                                    5
       Norm type:                                                              2

       Normalised Cartesian orbitals:

                        Set   Shell   Orbital            Exponent    Coefficient

                          1       1    2s               10.068468      -0.133023
                                                         2.680223      -0.177618
                                                         0.791502      -0.258419
                                                         0.239116      -0.107525
                                                         0.082193      -0.014019

                          1       2    3s               10.068468       0.344673
                                                         2.680223       1.819821
                                                         0.791502      -0.999069
                                                         0.239116       0.017430
                                                         0.082193       0.082660

                          1       3    3px              10.068468       0.155326
                                                         2.680223       0.367157
                                                         0.791502       0.311480
                                                         0.239116       0.080105
                                                         0.082193       0.033440
                          1       3    3py              10.068468       0.155326
                                                         2.680223       0.367157
                                                         0.791502       0.311480
                                                         0.239116       0.080105
                                                         0.082193       0.033440
                          1       3    3pz              10.068468       0.155326
                                                         2.680223       0.367157
                                                         0.791502       0.311480
                                                         0.239116       0.080105
                                                         0.082193       0.033440

       Atomic covalent radius [Angstrom]:                                  0.320

       Atomic van der Waals radius [Angstrom]:                             1.090

     GTH Potential information for                                    GTH-PBE-q1

       Description:                       Goedecker-Teter-Hutter pseudopotential
                                           Goedecker et al., PRB 54, 1703 (1996)
                                          Hartwigsen et al., PRB 58, 3641 (1998)
                                                      Krack, TCA 114, 145 (2005)

       Gaussian exponent of the core charge distribution:              12.500000
       Electronic configuration (s p d ...):                                   1

       Parameters of the local part of the GTH pseudopotential:

                          rloc        C1          C2          C3          C4
                        0.200000   -4.178900    0.724463

  3. Atomic kind: Pt                                    Number of atoms:     216

     Orbital Basis Set                      DZVP-A5-Q10-323-MOL-T1-DERIVED_SET-1

       Number of orbital shell sets:                                           1
       Number of orbital shells:                                               6
       Number of primitive Cartesian functions:                                5
       Number of Cartesian basis functions:                                   23
       Number of spherical basis functions:                                   20
       Norm type:                                                              2

       Normalised Cartesian orbitals:

                        Set   Shell   Orbital            Exponent    Coefficient

                          1       1    2s                2.521825       0.177473
                                                         1.453920      -0.063399
                                                         0.614053      -0.407089
                                                         0.232656       0.262254
                                                         0.074788       0.047371

                          1       2    3s                2.521825      -0.049056
                                                         1.453920       0.044904
                                                         0.614053      -0.009756
                                                         0.232656      -0.144709
                                                         0.074788       0.144085

                          1       3    3px               2.521825      -0.317572
                                                         1.453920       0.534826
                                                         0.614053      -0.489458
                                                         0.232656       0.245631
                                                         0.074788       0.018221
                          1       3    3py               2.521825      -0.317572
                                                         1.453920       0.534826
                                                         0.614053      -0.489458
                                                         0.232656       0.245631
                                                         0.074788       0.018221
                          1       3    3pz               2.521825      -0.317572
                                                         1.453920       0.534826
                                                         0.614053      -0.489458
                                                         0.232656       0.245631
                                                         0.074788       0.018221

                          1       4    4dx2              2.521825       3.008522
                                                         1.453920      -1.224251
                                                         0.614053       0.225691
                                                         0.232656       0.125144
                                                         0.074788      -0.015348
                          1       4    4dxy              2.521825       5.210912
                                                         1.453920      -2.120465
                                                         0.614053       0.390909
                                                         0.232656       0.216756
                                                         0.074788      -0.026584
                          1       4    4dxz              2.521825       5.210912
                                                         1.453920      -2.120465
                                                         0.614053       0.390909
                                                         0.232656       0.216756
                                                         0.074788      -0.026584
                          1       4    4dy2              2.521825       3.008522
                                                         1.453920      -1.224251
                                                         0.614053       0.225691
                                                         0.232656       0.125144
                                                         0.074788      -0.015348
                          1       4    4dyz              2.521825       5.210912
                                                         1.453920      -2.120465
                                                         0.614053       0.390909
                                                         0.232656       0.216756
                                                         0.074788      -0.026584
                          1       4    4dz2              2.521825       3.008522
                                                         1.453920      -1.224251
                                                         0.614053       0.225691
                                                         0.232656       0.125144
                                                         0.074788      -0.015348

                          1       5    5dx2              2.521825       0.698026
                                                         1.453920      -1.511486
                                                         0.614053      -0.335394
                                                         0.232656      -0.025564
                                                         0.074788      -0.002699
                          1       5    5dxy              2.521825       1.209017
                                                         1.453920      -2.617970
                                                         0.614053      -0.580920
                                                         0.232656      -0.044277
                                                         0.074788      -0.004674
                          1       5    5dxz              2.521825       1.209017
                                                         1.453920      -2.617970
                                                         0.614053      -0.580920
                                                         0.232656      -0.044277
                                                         0.074788      -0.004674
                          1       5    5dy2              2.521825       0.698026
                                                         1.453920      -1.511486
                                                         0.614053      -0.335394
                                                         0.232656      -0.025564
                                                         0.074788      -0.002699
                          1       5    5dyz              2.521825       1.209017
                                                         1.453920      -2.617970
                                                         0.614053      -0.580920
                                                         0.232656      -0.044277
                                                         0.074788      -0.004674
                          1       5    5dz2              2.521825       0.698026
                                                         1.453920      -1.511486
                                                         0.614053      -0.335394
                                                         0.232656      -0.025564
                                                         0.074788      -0.002699

                          1       6    6dx2              2.521825       0.831079
                                                         1.453920      -0.709226
                                                         0.614053      -0.137351
                                                         0.232656       0.068642
                                                         0.074788       0.011745
                          1       6    6dxy              2.521825       1.439472
                                                         1.453920      -1.228415
                                                         0.614053      -0.237899
                                                         0.232656       0.118891
                                                         0.074788       0.020343
                          1       6    6dxz              2.521825       1.439472
                                                         1.453920      -1.228415
                                                         0.614053      -0.237899
                                                         0.232656       0.118891
                                                         0.074788       0.020343
                          1       6    6dy2              2.521825       0.831079
                                                         1.453920      -0.709226
                                                         0.614053      -0.137351
                                                         0.232656       0.068642
                                                         0.074788       0.011745
                          1       6    6dyz              2.521825       1.439472
                                                         1.453920      -1.228415
                                                         0.614053      -0.237899
                                                         0.232656       0.118891
                                                         0.074788       0.020343
                          1       6    6dz2              2.521825       0.831079
                                                         1.453920      -0.709226
                                                         0.614053      -0.137351
                                                         0.232656       0.068642
                                                         0.074788       0.011745

       Atomic covalent radius [Angstrom]:                                  1.300

       Atomic van der Waals radius [Angstrom]:                             1.750

     GTH Potential information for                                   GTH-PBE-q10

       Description:                       Goedecker-Teter-Hutter pseudopotential
                                           Goedecker et al., PRB 54, 1703 (1996)
                                          Hartwigsen et al., PRB 58, 3641 (1998)
                                                      Krack, TCA 114, 145 (2005)

       Gaussian exponent of the core charge distribution:               1.317676
       Electronic configuration (s p d ...):                           1   0   9

       Parameters of the local part of the GTH pseudopotential:

                          rloc        C1          C2          C3          C4
                        0.616000   11.313635

       Parameters of the non-local part of the GTH pseudopotential:

                   l      r(l)      h(i,j,l)

                   0    0.550904    4.733491   -1.784594
                                   -1.784594    2.303901
                   1    0.674138    2.534798   -1.778066
                                   -1.778066    2.103836
                   2    0.457392   -7.264011    2.558665
                                    2.558665   -2.901253


 MOLECULE KIND INFORMATION


 All atoms are their own molecule, skipping detailed information


 TOTAL NUMBERS AND MAXIMUM NUMBERS

  Total number of            - Atomic kinds:                                   3
                             - Atoms:                                        507
                             - Shell sets:                                   507
                             - Shells:                                      2363
                             - Primitive Cartesian functions:               2535
                             - Cartesian basis functions:                   7296
                             - Spherical basis functions:                   6551

  Maximum angular momentum of- Orbital basis functions:                        2
                             - Local part of the GTH pseudopotential:          2
                             - Non-local part of the GTH pseudopotential:      4


 MODULE QUICKSTEP:  ATOMIC COORDINATES IN angstrom

 Atom  Kind  Element       X           Y           Z          Z(eff)       Mass
    1   1 O    8       9.170000    6.330000   33.098001       6.0000     15.9994
    2   2 H    1       8.650001    7.130001   32.808000       1.0000      1.0079
    3   2 H    1       8.640000    5.550000   32.918001       1.0000      1.0079
    4   1 O    8      12.920000    3.290000   37.908002       6.0000     15.9994
    5   2 H    1      12.740001    4.090000   37.338001       1.0000      1.0079
    6   2 H    1      12.310000    2.550000   37.628002       1.0000      1.0079
    7   1 O    8      -3.360000   13.330001   32.628001       6.0000     15.9994
    8   2 H    1      -3.740000   13.340001   31.718001       1.0000      1.0079
    9   2 H    1      -3.300000   12.340001   32.708000       1.0000      1.0079
   10   1 O    8       2.200000   10.330000   30.898000       6.0000     15.9994
   11   2 H    1       2.900000   10.110001   30.268000       1.0000      1.0079
   12   2 H    1       1.880000   11.200000   30.598001       1.0000      1.0079
   13   1 O    8       6.080000    6.020000   32.618001       6.0000     15.9994
   14   2 H    1       5.340000    5.880000   33.198001       1.0000      1.0079
   15   2 H    1       6.480000    6.940000   32.758001       1.0000      1.0079
   16   1 O    8      12.250000    5.610001   36.678001       6.0000     15.9994
   17   2 H    1      12.810000    5.360000   35.908001       1.0000      1.0079
   18   2 H    1      12.960000    6.320000   37.128002       1.0000      1.0079
   19   1 O    8       8.330001   11.560000   29.758001       6.0000     15.9994
   20   2 H    1       9.400001   11.490001   29.918001       1.0000      1.0079
   21   2 H    1       8.060000   12.510000   29.878001       1.0000      1.0079
   22   1 O    8      -1.010000    2.080000   30.868000       6.0000     15.9994
   23   2 H    1      -0.700000    2.630000   30.088001       1.0000      1.0079
   24   2 H    1      14.880000    1.800000   30.628001       1.0000      1.0079
   25   1 O    8      13.310001    0.170000   35.158000       6.0000     15.9994
   26   2 H    1       4.260000   14.380001   35.808001       1.0000      1.0079
   27   2 H    1      12.690001    0.430000   34.428001       1.0000      1.0079
   28   1 O    8      -3.050000   11.060000   38.648002       6.0000     15.9994
   29   2 H    1      -2.140000   11.420001   38.788001       1.0000      1.0079
   30   2 H    1      -2.810000   10.500001   37.788001       1.0000      1.0079
   31   1 O    8       2.700000    3.100000   37.117999       6.0000     15.9994
   32   2 H    1       1.770000    3.230000   37.538001       1.0000      1.0079
   33   2 H    1       2.630000    3.310000   36.168001       1.0000      1.0079
   34   1 O    8       9.340000    8.840000   35.868000       6.0000     15.9994
   35   2 H    1       8.610001    9.160001   35.288000       1.0000      1.0079
   36   2 H    1       9.490001    7.900000   35.578001       1.0000      1.0079
   37   1 O    8      -0.860000    9.830000   34.538001       6.0000     15.9994
   38   2 H    1       0.030000   10.320001   34.528001       1.0000      1.0079
   39   2 H    1      -0.650000    8.900001   34.298001       1.0000      1.0079
   40   1 O    8      15.600000    1.420000   35.458000       6.0000     15.9994
   41   2 H    1      -0.890000    2.010000   34.728001       1.0000      1.0079
   42   2 H    1      14.750000    1.020000   35.118001       1.0000      1.0079
   43   1 O    8       7.610001    8.240001   32.448000       6.0000     15.9994
   44   2 H    1       7.450001    8.460000   31.478000       1.0000      1.0079
   45   2 H    1       7.340000    9.040001   32.938001       1.0000      1.0079
   46   1 O    8       2.630000    0.580000   36.418001       6.0000     15.9994
   47   2 H    1       2.610000    1.560000   36.678001       1.0000      1.0079
   48   2 H    1       3.330000    0.130000   36.888000       1.0000      1.0079
   49   1 O    8       0.040000    7.190001   34.018001       6.0000     15.9994
   50   2 H    1       0.830000    6.880000   33.538001       1.0000      1.0079
   51   2 H    1      -0.570000    6.570000   33.448000       1.0000      1.0079
   52   1 O    8      12.940001    1.790000   30.628001       6.0000     15.9994
   53   2 H    1      12.200001    1.340000   31.208000       1.0000      1.0079
   54   2 H    1      12.830001    1.520000   29.708000       1.0000      1.0079
   55   1 O    8       4.960000    4.670000   35.158000       6.0000     15.9994
   56   2 H    1       5.510000    5.450000   35.378002       1.0000      1.0079
   57   2 H    1       4.040000    4.950000   35.318001       1.0000      1.0079
   58   1 O    8       0.880000   12.810000   30.428001       6.0000     15.9994
   59   2 H    1       0.780000   13.490001   31.138001       1.0000      1.0079
   60   2 H    1      -0.030000   12.640000   30.018001       1.0000      1.0079
   61   1 O    8       7.480001    0.060000   36.408000       6.0000     15.9994
   62   2 H    1       6.740000    0.590000   36.788000       1.0000      1.0079
   63   2 H    1      -1.240000   14.600000   35.398001       1.0000      1.0079
   64   1 O    8       4.530000    9.890000   29.628001       6.0000     15.9994
   65   2 H    1       5.480001    9.520000   29.528000       1.0000      1.0079
   66   2 H    1       4.540000   10.170001   28.628001       1.0000      1.0079
   67   1 O    8      -5.220000   10.480001   35.648001       6.0000     15.9994
   68   2 H    1      10.940001    9.820001   35.498000       1.0000      1.0079
   69   2 H    1      -5.610001   11.330000   35.238000       1.0000      1.0079
   70   1 O    8       3.050000   10.390000   33.478001       6.0000     15.9994
   71   2 H    1       3.730000   11.090001   33.428001       1.0000      1.0079
   72   2 H    1       2.560000   10.320001   32.588001       1.0000      1.0079
   73   1 O    8       3.660000    4.630000   39.188001       6.0000     15.9994
   74   2 H    1       4.410000    5.240001   39.468000       1.0000      1.0079
   75   2 H    1       3.620000    4.560000   38.208001       1.0000      1.0079
   76   1 O    8       4.860000   12.840000   30.568000       6.0000     15.9994
   77   2 H    1       5.760000   13.110001   30.378001       1.0000      1.0079
   78   2 H    1       4.910000   11.900001   30.338001       1.0000      1.0079
   79   1 O    8      -2.820000    9.500000   36.438001       6.0000     15.9994
   80   2 H    1      -2.040000    9.730001   35.908001       1.0000      1.0079
   81   2 H    1      -3.630000    9.600000   35.848001       1.0000      1.0079
   82   1 O    8       2.590000    7.180000   36.698001       6.0000     15.9994
   83   2 H    1       1.680000    6.820001   36.748000       1.0000      1.0079
   84   2 H    1       2.490000    7.810000   37.458001       1.0000      1.0079
   85   1 O    8       7.290000    0.370000   30.218001       6.0000     15.9994
   86   2 H    1      -1.440000   14.360001   29.558001       1.0000      1.0079
   87   2 H    1       6.730001    0.140000   30.928001       1.0000      1.0079
   88   1 O    8      10.630001    2.800000   34.428001       6.0000     15.9994
   89   2 H    1      10.150002    2.300000   35.108001       1.0000      1.0079
   90   2 H    1       9.960001    3.150000   33.748000       1.0000      1.0079
   91   1 O    8       5.570001    1.580000   37.648002       6.0000     15.9994
   92   2 H    1       4.920000    1.060000   38.318000       1.0000      1.0079
   93   2 H    1       5.140000    2.320000   37.178001       1.0000      1.0079
   94   1 O    8       2.700000    6.380000   33.108001       6.0000     15.9994
   95   2 H    1       2.680000    5.540000   33.588001       1.0000      1.0079
   96   2 H    1       3.060000    7.150001   33.758001       1.0000      1.0079
   97   1 O    8      -7.740001   13.900002   32.398000       6.0000     15.9994
   98   2 H    1      -7.010000   14.350000   32.888001       1.0000      1.0079
   99   2 H    1       9.210001   12.980001   32.868001       1.0000      1.0079
  100   1 O    8      11.600000    0.920000   32.678001       6.0000     15.9994
  101   2 H    1      11.200000    1.540000   33.418001       1.0000      1.0079
  102   2 H    1      10.870000    0.260000   32.478000       1.0000      1.0079
  103   1 O    8       4.340000    0.790000   39.648000       6.0000     15.9994
  104   2 H    1       3.420000    1.180000   39.958001       1.0000      1.0079
  105   2 H    1       4.880000    1.250000   40.428001       1.0000      1.0079
  106   1 O    8      -6.620001   14.420000   30.028000       6.0000     15.9994
  107   2 H    1      -7.060000   14.110001   30.908000       1.0000      1.0079
  108   2 H    1      -7.220001   14.220000   29.258001       1.0000      1.0079
  109   1 O    8       8.520000    3.540000   32.508001       6.0000     15.9994
  110   2 H    1       7.670000    3.300000   32.928001       1.0000      1.0079
  111   2 H    1       8.700001    3.170000   31.638001       1.0000      1.0079
  112   1 O    8       5.990000   10.380001   36.098001       6.0000     15.9994
  113   2 H    1       6.590000   10.900001   36.668001       1.0000      1.0079
  114   2 H    1       5.900001    9.520000   36.518001       1.0000      1.0079
  115   1 O    8       6.910000    0.210000   33.888001       6.0000     15.9994
  116   2 H    1      -2.260000   14.340000   33.448000       1.0000      1.0079
  117   2 H    1       6.920000    1.210000   33.748000       1.0000      1.0079
  118   1 O    8      -1.640000    5.430000   32.788000       6.0000     15.9994
  119   2 H    1      -1.960000    5.420001   31.848001       1.0000      1.0079
  120   2 H    1      -2.430000    5.100000   33.238000       1.0000      1.0079
  121   1 O    8       8.670000    4.870000   29.418001       6.0000     15.9994
  122   2 H    1       8.930000    3.890000   29.578000       1.0000      1.0079
  123   2 H    1       7.730001    4.800000   29.598001       1.0000      1.0079
  124   1 O    8      -2.080000    9.840000   30.358000       6.0000     15.9994
  125   2 H    1      -1.180000    9.400001   30.338001       1.0000      1.0079
  126   2 H    1      -2.230000   10.080000   31.338001       1.0000      1.0079
  127   1 O    8       4.650001    2.200000   28.978000       6.0000     15.9994
  128   2 H    1       5.110001    3.000000   29.298001       1.0000      1.0079
  129   2 H    1       3.660000    2.420000   29.218001       1.0000      1.0079
  130   1 O    8       1.420000   11.660000   37.448001       6.0000     15.9994
  131   2 H    1       1.600000   10.720000   37.798002       1.0000      1.0079
  132   2 H    1       0.580000   11.940001   37.888000       1.0000      1.0079
  133   1 O    8       1.080000   11.920000   34.438000       6.0000     15.9994
  134   2 H    1       1.040000   12.090001   35.398001       1.0000      1.0079
  135   2 H    1       2.000000   11.390000   34.228001       1.0000      1.0079
  136   1 O    8      -4.970000   12.740001   37.538001       6.0000     15.9994
  137   2 H    1      -5.320000   11.830001   37.338001       1.0000      1.0079
  138   2 H    1      -4.030000   12.580000   37.758001       1.0000      1.0079
  139   1 O    8       8.790001   13.870001   35.868000       6.0000     15.9994
  140   2 H    1      16.710001    0.060000   35.528001       1.0000      1.0079
  141   2 H    1      -7.310000   14.250001   36.318001       1.0000      1.0079
  142   1 O    8       2.850000   14.070001   29.278000       6.0000     15.9994
  143   2 H    1       3.590000   13.470001   29.588001       1.0000      1.0079
  144   2 H    1       2.010000   13.570002   29.558001       1.0000      1.0079
  145   1 O    8       7.020000    6.020000   36.428001       6.0000     15.9994
  146   2 H    1       7.130001    5.200000   36.988001       1.0000      1.0079
  147   2 H    1       7.940001    6.210001   36.198001       1.0000      1.0079
  148   1 O    8       9.150001    1.990000   36.648001       6.0000     15.9994
  149   2 H    1       8.410000    2.530000   37.128002       1.0000      1.0079
  150   2 H    1       8.600000    1.170000   36.338001       1.0000      1.0079
  151   1 O    8       4.100000    8.080000   34.758001       6.0000     15.9994
  152   2 H    1       3.510000    7.870001   35.578001       1.0000      1.0079
  153   2 H    1       4.010000    9.070001   34.538001       1.0000      1.0079
  154   1 O    8       1.930000    9.000000   38.648002       6.0000     15.9994
  155   2 H    1       1.200000    8.840000   39.338001       1.0000      1.0079
  156   2 H    1       2.680000    9.320001   39.198001       1.0000      1.0079
  157   1 O    8      -1.380000    6.790000   39.878002       6.0000     15.9994
  158   2 H    1      -0.710000    6.080000   39.838001       1.0000      1.0079
  159   2 H    1      -0.880000    7.590001   40.208000       1.0000      1.0079
  160   1 O    8      -0.300000    2.960000   33.288000       6.0000     15.9994
  161   2 H    1      -0.450000    2.470000   32.448000       1.0000      1.0079
  162   2 H    1      -0.940000    3.700000   33.178001       1.0000      1.0079
  163   1 O    8      -3.870000    8.040000   29.688001       6.0000     15.9994
  164   2 H    1      -3.210000    8.670000   29.948001       1.0000      1.0079
  165   2 H    1      -3.970000    8.220000   28.648000       1.0000      1.0079
  166   1 O    8       9.290000   11.890000   34.018001       6.0000     15.9994
  167   2 H    1       8.320000   11.610001   33.988000       1.0000      1.0079
  168   2 H    1       9.300001   12.530001   34.778001       1.0000      1.0079
  169   1 O    8      -0.970000   12.780001   38.148000       6.0000     15.9994
  170   2 H    1      -0.860000   13.270000   37.288001       1.0000      1.0079
  171   2 H    1      -0.950000   13.370000   38.858001       1.0000      1.0079
  172   1 O    8       7.350000    9.060000   29.838001       6.0000     15.9994
  173   2 H    1       7.860000    9.900001   29.818001       1.0000      1.0079
  174   2 H    1       7.880001    8.360001   29.348001       1.0000      1.0079
  175   1 O    8      11.600000    6.650000   32.058001       6.0000     15.9994
  176   2 H    1      11.750001    5.980001   31.428001       1.0000      1.0079
  177   2 H    1      10.620001    6.530001   32.388001       1.0000      1.0079
  178   1 O    8       4.930000   12.670001   33.228001       6.0000     15.9994
  179   2 H    1       4.830000   13.020000   32.338001       1.0000      1.0079
  180   2 H    1       5.070000   13.400001   33.898001       1.0000      1.0079
  181   1 O    8      15.300001    2.050000   38.038001       6.0000     15.9994
  182   2 H    1      14.400001    2.430000   37.958001       1.0000      1.0079
  183   2 H    1      15.490000    1.570000   37.138002       1.0000      1.0079
  184   1 O    8       9.250001   10.960001   39.578000       6.0000     15.9994
  185   2 H    1       8.740000   11.500001   38.788001       1.0000      1.0079
  186   2 H    1       8.590000   10.860001   40.328002       1.0000      1.0079
  187   1 O    8       0.230000    3.780000   38.028001       6.0000     15.9994
  188   2 H    1       0.200000    4.630000   37.528001       1.0000      1.0079
  189   2 H    1      -0.590000    3.080000   37.978002       1.0000      1.0079
  190   1 O    8       2.110000    3.950000   34.408001       6.0000     15.9994
  191   2 H    1       2.630000    3.480000   33.668001       1.0000      1.0079
  192   2 H    1       1.190000    3.790000   34.138001       1.0000      1.0079
  193   1 O    8      -2.670000    7.140000   37.438001       6.0000     15.9994
  194   2 H    1      -2.180000    7.120000   38.328000       1.0000      1.0079
  195   2 H    1      -2.820000    8.130000   37.188001       1.0000      1.0079
  196   1 O    8      -2.300000    5.430000   29.988000       6.0000     15.9994
  197   2 H    1      -2.770000    6.220000   29.618000       1.0000      1.0079
  198   2 H    1      13.690001    4.970000   30.138001       1.0000      1.0079
  199   1 O    8      10.780001    0.940000   38.348001       6.0000     15.9994
  200   2 H    1      10.130000    1.240000   37.628002       1.0000      1.0079
  201   2 H    1      11.350001    0.290000   37.908002       1.0000      1.0079
  202   1 O    8       9.050000    2.310000   29.848001       6.0000     15.9994
  203   2 H    1       8.230000    1.690000   29.988000       1.0000      1.0079
  204   2 H    1       9.400001    2.080000   28.968000       1.0000      1.0079
  205   1 O    8       9.610001    6.160001   35.808001       6.0000     15.9994
  206   2 H    1       9.560000    5.810000   34.928001       1.0000      1.0079
  207   2 H    1      10.480001    6.060000   36.248001       1.0000      1.0079
  208   1 O    8       9.570000    8.450001   38.968002       6.0000     15.9994
  209   2 H    1       9.620001    9.410001   39.248000       1.0000      1.0079
  210   2 H    1      10.060000    8.370000   38.158000       1.0000      1.0079
  211   1 O    8       1.000000   14.040001   32.648001       6.0000     15.9994
  212   2 H    1       1.150000   13.360001   33.378001       1.0000      1.0079
  213   2 H    1       0.150000   14.450001   32.858000       1.0000      1.0079
  214   1 O    8       7.750000   12.090001   37.688001       6.0000     15.9994
  215   2 H    1       6.980000   12.470001   38.208001       1.0000      1.0079
  216   2 H    1       8.130000   12.830001   37.168002       1.0000      1.0079
  217   1 O    8       6.000000    4.840000   29.908000       6.0000     15.9994
  218   2 H    1       6.150000    5.260000   30.738001       1.0000      1.0079
  219   2 H    1       5.490000    5.570001   29.408000       1.0000      1.0079
  220   1 O    8       4.180000    6.940000   29.328000       6.0000     15.9994
  221   2 H    1       4.060000    7.930000   29.428001       1.0000      1.0079
  222   2 H    1       3.260000    6.570000   29.528000       1.0000      1.0079
  223   1 O    8       6.760001   10.610001   33.748000       6.0000     15.9994
  224   2 H    1       6.370000   10.640000   34.698000       1.0000      1.0079
  225   2 H    1       6.220000   11.150000   33.138000       1.0000      1.0079
  226   1 O    8       0.240000    4.610000   29.228001       6.0000     15.9994
  227   2 H    1       0.850000    5.310000   29.638001       1.0000      1.0079
  228   2 H    1      -0.730000    5.010000   29.368000       1.0000      1.0079
  229   1 O    8       6.110000    2.870000   33.498000       6.0000     15.9994
  230   2 H    1       5.260000    2.930000   33.008001       1.0000      1.0079
  231   2 H    1       5.850000    3.400000   34.298001       1.0000      1.0079
  232   1 O    8       5.460000   12.370001   38.908000       6.0000     15.9994
  233   2 H    1       5.300000   11.400002   39.198001       1.0000      1.0079
  234   2 H    1       5.340000   12.900001   39.758001       1.0000      1.0079
  235   1 O    8       2.310000    2.480000   29.918001       6.0000     15.9994
  236   2 H    1       2.020000    1.510000   29.968001       1.0000      1.0079
  237   2 H    1       1.500000    2.930000   29.528000       1.0000      1.0079
  238   1 O    8       6.380000    8.040000   38.318000       6.0000     15.9994
  239   2 H    1       7.330000    8.260000   38.508001       1.0000      1.0079
  240   2 H    1       6.330000    7.410001   37.558000       1.0000      1.0079
  241   1 O    8       9.750000    7.200000   29.338001       6.0000     15.9994
  242   2 H    1       9.390000    6.290000   29.528000       1.0000      1.0079
  243   2 H    1      10.730000    7.120000   29.618000       1.0000      1.0079
  244   1 O    8       7.390000    3.580000   37.978002       6.0000     15.9994
  245   2 H    1       6.650000    2.940000   38.098001       1.0000      1.0079
  246   2 H    1       7.370000    4.010000   38.878002       1.0000      1.0079
  247   1 O    8      12.130001    4.390000   30.268000       6.0000     15.9994
  248   2 H    1      11.860001    4.480000   29.288000       1.0000      1.0079
  249   2 H    1      12.440001    3.370000   30.408000       1.0000      1.0079
  250   1 O    8       4.420000   10.000000   39.608001       6.0000     15.9994
  251   2 H    1       4.890000    9.250001   39.278001       1.0000      1.0079
  252   2 H    1       4.180000    9.790000   40.628002       1.0000      1.0079
  253   1 O    8       2.870000    0.180000   33.768001       6.0000     15.9994
  254   2 H    1      -4.740000   14.250001   33.678001       1.0000      1.0079
  255   2 H    1       2.790000    0.310000   34.788001       1.0000      1.0079
  256   1 O    8      -0.110000    6.090000   36.478002       6.0000     15.9994
  257   2 H    1      -0.970000    6.540000   36.718001       1.0000      1.0079
  258   2 H    1      -0.110000    6.310000   35.528001       1.0000      1.0079
  259   1 O    8       7.270000   13.920001   29.988000       6.0000     15.9994
  260   2 H    1       7.650001   14.570000   30.658000       1.0000      1.0079
  261   2 H    1       7.370000   14.420000   29.108000       1.0000      1.0079
  262   1 O    8       1.670000    6.230001   30.618000       6.0000     15.9994
  263   2 H    1       2.160000    6.080000   31.538000       1.0000      1.0079
  264   2 H    1       1.210000    7.170000   30.678001       1.0000      1.0079
  265   1 O    8      12.830001    4.850000   33.908000       6.0000     15.9994
  266   2 H    1      12.340001    4.040000   34.168001       1.0000      1.0079
  267   2 H    1      12.100000    5.530000   33.678001       1.0000      1.0079
  268   1 O    8      -2.660000   10.680000   32.688001       6.0000     15.9994
  269   2 H    1      -3.320000    9.990001   32.848001       1.0000      1.0079
  270   2 H    1      -1.970000   10.550001   33.368000       1.0000      1.0079
  271   1 O    8       3.460000    2.580000   32.598000       6.0000     15.9994
  272   2 H    1       3.020000    2.540000   31.728001       1.0000      1.0079
  273   2 H    1       3.280000    1.630000   33.008001       1.0000      1.0079
  274   1 O    8       3.560000   13.430000   37.148000       6.0000     15.9994
  275   2 H    1       4.240000   13.020000   37.758001       1.0000      1.0079
  276   2 H    1       2.750000   12.830001   37.088001       1.0000      1.0079
  277   1 O    8       0.390000    8.470000   30.068000       6.0000     15.9994
  278   2 H    1       0.450000    8.410000   29.068000       1.0000      1.0079
  279   2 H    1       0.970000    9.140000   30.388001       1.0000      1.0079
  280   1 O    8      -4.980001    9.250001   32.068000       6.0000     15.9994
  281   2 H    1      11.100000    9.300001   32.668001       1.0000      1.0079
  282   2 H    1      11.920000    8.210000   31.818000       1.0000      1.0079
  283   1 O    8      -4.240000   13.010001   30.118000       6.0000     15.9994
  284   2 H    1      -4.630000   12.090001   30.108001       1.0000      1.0079
  285   2 H    1      -5.050000   13.650000   30.018001       1.0000      1.0079
  286   1 O    8      -1.720000   12.140001   29.088001       6.0000     15.9994
  287   2 H    1      -1.600000   11.310000   29.598001       1.0000      1.0079
  288   2 H    1      -2.640000   12.490001   29.148000       1.0000      1.0079
  289   1 O    8      -5.810000   10.720000   29.868000       6.0000     15.9994
  290   2 H    1      -5.350000   10.120001   30.548001       1.0000      1.0079
  291   2 H    1      11.020000   10.120001   29.068000       1.0000      1.0079
  292   3 Pt  78       1.580000    0.650000   15.180004      10.0000    195.0840
  293   3 Pt  78       4.430000    0.680000   15.250004      10.0000    195.0840
  294   3 Pt  78       7.180000    0.540000   15.150002      10.0000    195.0840
  295   3 Pt  78      10.030001    0.630000   15.310001      10.0000    195.0840
  296   3 Pt  78      12.860001    0.560000   15.240002      10.0000    195.0840
  297   3 Pt  78      15.810001    0.690000   15.139999      10.0000    195.0840
  298   3 Pt  78       3.080000    3.150000   15.190002      10.0000    195.0840
  299   3 Pt  78       5.740000    3.040000   15.340004      10.0000    195.0840
  300   3 Pt  78       8.590000    3.130000   15.200001      10.0000    195.0840
  301   3 Pt  78      11.470001    3.020000   15.330002      10.0000    195.0840
  302   3 Pt  78      14.260001    3.090000   15.390003      10.0000    195.0840
  303   3 Pt  78       0.300000    3.070000   15.080002      10.0000    195.0840
  304   3 Pt  78       4.390000    5.680000   15.190002      10.0000    195.0840
  305   3 Pt  78       7.250000    5.400000   15.360001      10.0000    195.0840
  306   3 Pt  78      10.140000    5.500000   15.400002      10.0000    195.0840
  307   3 Pt  78      13.000001    5.590000   15.280003      10.0000    195.0840
  308   3 Pt  78      -1.190000    5.590000   15.250004      10.0000    195.0840
  309   3 Pt  78       1.610000    5.520000   15.170002      10.0000    195.0840
  310   3 Pt  78       5.920000    7.940001   15.230000      10.0000    195.0840
  311   3 Pt  78       8.720000    7.870001   15.220001      10.0000    195.0840
  312   3 Pt  78      11.480000    7.880001   15.320004      10.0000    195.0840
  313   3 Pt  78      -2.510000    8.020000   15.299999      10.0000    195.0840
  314   3 Pt  78       0.130000    8.020000   15.260002      10.0000    195.0840
  315   3 Pt  78       2.860000    8.000000   15.230000      10.0000    195.0840
  316   3 Pt  78       7.340000   10.400001   15.250004      10.0000    195.0840
  317   3 Pt  78      10.270000   10.340000   15.000000      10.0000    195.0840
  318   3 Pt  78      -3.950000   10.400001   15.190002      10.0000    195.0840
  319   3 Pt  78      -1.150000   10.630001   15.200001      10.0000    195.0840
  320   3 Pt  78       1.600000   10.430001   15.280003      10.0000    195.0840
  321   3 Pt  78       4.540000   10.450001   15.420002      10.0000    195.0840
  322   3 Pt  78       8.650001   12.740001   15.280003      10.0000    195.0840
  323   3 Pt  78      -5.380001   12.880001   15.310001      10.0000    195.0840
  324   3 Pt  78      -2.560000   12.800001   15.170002      10.0000    195.0840
  325   3 Pt  78       0.270000   12.820001   15.299999      10.0000    195.0840
  326   3 Pt  78       3.160000   12.840000   15.320004      10.0000    195.0840
  327   3 Pt  78       5.890000   12.830001   15.350002      10.0000    195.0840
  328   3 Pt  78       0.320000    1.570000   17.580002      10.0000    195.0840
  329   3 Pt  78       3.100000    1.420000   17.530003      10.0000    195.0840
  330   3 Pt  78       5.880000    1.450000   17.670002      10.0000    195.0840
  331   3 Pt  78       8.640000    1.450000   17.580002      10.0000    195.0840
  332   3 Pt  78      11.450001    1.400000   17.690002      10.0000    195.0840
  333   3 Pt  78      14.270000    1.610000   17.620003      10.0000    195.0840
  334   3 Pt  78       1.600000    4.000000   17.510002      10.0000    195.0840
  335   3 Pt  78       4.470000    3.900000   17.470001      10.0000    195.0840
  336   3 Pt  78       7.260000    3.790000   17.620003      10.0000    195.0840
  337   3 Pt  78       9.930000    3.810000   17.720001      10.0000    195.0840
  338   3 Pt  78      12.820001    3.940000   17.639999      10.0000    195.0840
  339   3 Pt  78      -1.190000    3.850000   17.570000      10.0000    195.0840
  340   3 Pt  78       3.060000    6.370000   17.490002      10.0000    195.0840
  341   3 Pt  78       5.830000    6.370000   17.590000      10.0000    195.0840
  342   3 Pt  78       8.660001    6.330000   17.630001      10.0000    195.0840
  343   3 Pt  78      11.420001    6.330000   17.630001      10.0000    195.0840
  344   3 Pt  78      -2.640000    6.490001   17.650002      10.0000    195.0840
  345   3 Pt  78       0.230000    6.290000   17.590000      10.0000    195.0840
  346   3 Pt  78       4.460000    8.790001   17.660000      10.0000    195.0840
  347   3 Pt  78       7.130001    8.770000   17.610004      10.0000    195.0840
  348   3 Pt  78      10.060000    8.790001   17.540001      10.0000    195.0840
  349   3 Pt  78      -3.940000    8.820001   17.570000      10.0000    195.0840
  350   3 Pt  78      -1.040000    8.830000   17.670002      10.0000    195.0840
  351   3 Pt  78       1.640000    8.870000   17.600002      10.0000    195.0840
  352   3 Pt  78       5.860000   11.300000   17.690002      10.0000    195.0840
  353   3 Pt  78       8.580000   11.190001   17.560001      10.0000    195.0840
  354   3 Pt  78      -5.400000   11.170001   17.610004      10.0000    195.0840
  355   3 Pt  78      -2.680000   11.330000   17.560001      10.0000    195.0840
  356   3 Pt  78       0.290000   11.260000   17.620003      10.0000    195.0840
  357   3 Pt  78       3.030000   11.260000   17.720001      10.0000    195.0840
  358   3 Pt  78       7.280001   13.920001   17.630001      10.0000    195.0840
  359   3 Pt  78      -6.910000   13.610001   17.540001      10.0000    195.0840
  360   3 Pt  78      -4.060000   13.650000   17.590000      10.0000    195.0840
  361   3 Pt  78      -1.170000   13.630000   17.670002      10.0000    195.0840
  362   3 Pt  78       1.610000   13.550000   17.620003      10.0000    195.0840
  363   3 Pt  78       4.440001   13.720001   17.620003      10.0000    195.0840
  364   3 Pt  78      -8.260000   14.500000   19.870003      10.0000    195.0840
  365   3 Pt  78      -5.430000   14.530001   19.780003      10.0000    195.0840
  366   3 Pt  78      -2.580000   14.440001   19.910000      10.0000    195.0840
  367   3 Pt  78       0.150000   14.380001   19.950001      10.0000    195.0840
  368   3 Pt  78       2.990000   14.470000   19.940002      10.0000    195.0840
  369   3 Pt  78       5.810000   14.560001   20.049999      10.0000    195.0840
  370   3 Pt  78       1.560000    2.450000   19.860004      10.0000    195.0840
  371   3 Pt  78       4.430000    2.430000   19.940002      10.0000    195.0840
  372   3 Pt  78       7.260000    2.350000   20.040001      10.0000    195.0840
  373   3 Pt  78      10.010000    2.160000   19.960003      10.0000    195.0840
  374   3 Pt  78      12.920000    2.300000   20.030003      10.0000    195.0840
  375   3 Pt  78      -1.230000    2.310000   19.930004      10.0000    195.0840
  376   3 Pt  78       3.110000    4.840000   19.880001      10.0000    195.0840
  377   3 Pt  78       5.840001    4.810000   19.910000      10.0000    195.0840
  378   3 Pt  78       8.740000    4.780000   20.010002      10.0000    195.0840
  379   3 Pt  78      11.390000    4.760000   19.980000      10.0000    195.0840
  380   3 Pt  78      -2.650000    4.730000   19.920002      10.0000    195.0840
  381   3 Pt  78       0.240000    4.740000   19.910000      10.0000    195.0840
  382   3 Pt  78       4.440001    7.280001   19.940002      10.0000    195.0840
  383   3 Pt  78       7.200000    7.160000   19.940002      10.0000    195.0840
  384   3 Pt  78      10.000000    7.350000   19.880001      10.0000    195.0840
  385   3 Pt  78      -4.140000    7.200000   19.930004      10.0000    195.0840
  386   3 Pt  78      -1.140000    7.180000   20.000004      10.0000    195.0840
  387   3 Pt  78       1.630000    7.180000   19.890003      10.0000    195.0840
  388   3 Pt  78       5.810000    9.730001   19.940002      10.0000    195.0840
  389   3 Pt  78       8.640000    9.650001   19.820004      10.0000    195.0840
  390   3 Pt  78      -5.370000    9.680000   19.800003      10.0000    195.0840
  391   3 Pt  78      -2.610000    9.560000   19.850002      10.0000    195.0840
  392   3 Pt  78       0.330000    9.570000   19.940002      10.0000    195.0840
  393   3 Pt  78       3.030000    9.680000   19.990002      10.0000    195.0840
  394   3 Pt  78       7.200000   12.120000   19.960003      10.0000    195.0840
  395   3 Pt  78      -6.920000   12.110001   19.800003      10.0000    195.0840
  396   3 Pt  78      -4.020000   12.070000   19.930004      10.0000    195.0840
  397   3 Pt  78      -1.230000   11.990000   19.900002      10.0000    195.0840
  398   3 Pt  78       1.550000   12.110001   20.000004      10.0000    195.0840
  399   3 Pt  78       4.330000   12.160001   19.950001      10.0000    195.0840
  400   3 Pt  78       1.600000    0.730000   22.108000      10.0000    195.0840
  401   3 Pt  78       4.460000    0.610000   22.078000      10.0000    195.0840
  402   3 Pt  78       7.200000    0.690000   22.238000      10.0000    195.0840
  403   3 Pt  78       9.910001    0.680000   22.318000      10.0000    195.0840
  404   3 Pt  78      12.790001    0.630000   22.328000      10.0000    195.0840
  405   3 Pt  78      15.520000    0.690000   22.268000      10.0000    195.0840
  406   3 Pt  78       3.050000    3.060000   22.208000      10.0000    195.0840
  407   3 Pt  78       5.730000    3.170000   22.308000      10.0000    195.0840
  408   3 Pt  78       8.520000    3.210000   22.268000      10.0000    195.0840
  409   3 Pt  78      11.340000    3.070000   22.278000      10.0000    195.0840
  410   3 Pt  78      14.190001    3.070000   22.338000      10.0000    195.0840
  411   3 Pt  78       0.160000    3.060000   22.288000      10.0000    195.0840
  412   3 Pt  78       4.330000    5.600000   22.228000      10.0000    195.0840
  413   3 Pt  78       7.140000    5.700001   22.228000      10.0000    195.0840
  414   3 Pt  78       9.910001    5.640000   22.288000      10.0000    195.0840
  415   3 Pt  78      12.680000    5.510000   22.208000      10.0000    195.0840
  416   3 Pt  78      -1.220000    5.520000   22.208000      10.0000    195.0840
  417   3 Pt  78       1.680000    5.460000   22.178000      10.0000    195.0840
  418   3 Pt  78       5.780000    8.070001   22.258000      10.0000    195.0840
  419   3 Pt  78       8.610001    8.070001   22.248000      10.0000    195.0840
  420   3 Pt  78      11.420001    8.020000   22.228000      10.0000    195.0840
  421   3 Pt  78      -2.690000    7.930000   22.238000      10.0000    195.0840
  422   3 Pt  78       0.190000    7.890000   22.258000      10.0000    195.0840
  423   3 Pt  78       3.010000    8.020000   22.248000      10.0000    195.0840
  424   3 Pt  78       7.180000   10.540000   22.168000      10.0000    195.0840
  425   3 Pt  78       9.980000   10.460000   22.088000      10.0000    195.0840
  426   3 Pt  78      -4.000000   10.440001   22.128000      10.0000    195.0840
  427   3 Pt  78      -1.240000   10.350000   22.298000      10.0000    195.0840
  428   3 Pt  78       1.470000   10.500001   22.368000      10.0000    195.0840
  429   3 Pt  78       4.340000   10.430001   22.208000      10.0000    195.0840
  430   3 Pt  78       8.560000   12.940001   22.248000      10.0000    195.0840
  431   3 Pt  78      -5.540000   12.780001   21.958000      10.0000    195.0840
  432   3 Pt  78      -2.640000   12.790001   22.268000      10.0000    195.0840
  433   3 Pt  78       0.050000   12.770000   22.298000      10.0000    195.0840
  434   3 Pt  78       2.850000   12.910000   22.408000      10.0000    195.0840
  435   3 Pt  78       5.720000   12.930001   22.318000      10.0000    195.0840
  436   3 Pt  78       0.110000    1.420000   24.578000      10.0000    195.0840
  437   3 Pt  78       2.920000    1.460000   24.378001      10.0000    195.0840
  438   3 Pt  78       5.750000    1.480000   24.478000      10.0000    195.0840
  439   3 Pt  78       8.620001    1.500000   24.518000      10.0000    195.0840
  440   3 Pt  78      11.280001    1.440000   24.708000      10.0000    195.0840
  441   3 Pt  78      14.090000    1.420000   24.648000      10.0000    195.0840
  442   3 Pt  78       1.480000    3.930000   24.568000      10.0000    195.0840
  443   3 Pt  78       4.300000    3.880000   24.418000      10.0000    195.0840
  444   3 Pt  78       7.150001    4.030000   24.548000      10.0000    195.0840
  445   3 Pt  78       9.950001    3.940000   24.548000      10.0000    195.0840
  446   3 Pt  78      12.830001    3.870000   24.508000      10.0000    195.0840
  447   3 Pt  78      -1.210000    3.980000   24.508000      10.0000    195.0840
  448   3 Pt  78       3.010000    6.410000   24.538000      10.0000    195.0840
  449   3 Pt  78       5.680000    6.390000   24.568000      10.0000    195.0840
  450   3 Pt  78       8.560000    6.440001   24.578000      10.0000    195.0840
  451   3 Pt  78      11.430000    6.390000   24.598000      10.0000    195.0840
  452   3 Pt  78      -2.580000    6.300001   24.528000      10.0000    195.0840
  453   3 Pt  78       0.290000    6.340000   24.608000      10.0000    195.0840
  454   3 Pt  78       4.360000    8.820001   24.478000      10.0000    195.0840
  455   3 Pt  78       7.200000    8.870000   24.578000      10.0000    195.0840
  456   3 Pt  78       9.960001    8.750001   24.458000      10.0000    195.0840
  457   3 Pt  78      -4.030000    8.740000   24.548000      10.0000    195.0840
  458   3 Pt  78      -1.230000    8.640000   24.508000      10.0000    195.0840
  459   3 Pt  78       1.530000    8.740000   24.498000      10.0000    195.0840
  460   3 Pt  78       5.850000   11.230000   24.598000      10.0000    195.0840
  461   3 Pt  78       8.730000   11.190001   24.618000      10.0000    195.0840
  462   3 Pt  78      -5.460000   11.200000   24.438000      10.0000    195.0840
  463   3 Pt  78      -2.700000   11.230000   24.508000      10.0000    195.0840
  464   3 Pt  78      -0.020000   11.140001   24.658000      10.0000    195.0840
  465   3 Pt  78       2.930000   11.240001   24.578000      10.0000    195.0840
  466   3 Pt  78       7.270000   13.630000   24.668000      10.0000    195.0840
  467   3 Pt  78      -6.840000   13.620001   24.388000      10.0000    195.0840
  468   3 Pt  78      -4.100000   13.770000   24.588000      10.0000    195.0840
  469   3 Pt  78      -1.300000   13.620001   24.648000      10.0000    195.0840
  470   3 Pt  78       1.540000   13.600000   24.608000      10.0000    195.0840
  471   3 Pt  78       4.370000   13.570002   24.728000      10.0000    195.0840
  472   3 Pt  78      -8.250000   14.480001   26.908001      10.0000    195.0840
  473   3 Pt  78      -5.480001   14.530001   26.758000      10.0000    195.0840
  474   3 Pt  78      -2.500000   14.570000   26.838001      10.0000    195.0840
  475   3 Pt  78       0.280000   14.550000   26.868000      10.0000    195.0840
  476   3 Pt  78       2.970000   14.430000   27.128000      10.0000    195.0840
  477   3 Pt  78       5.710001   14.470000   26.968001      10.0000    195.0840
  478   3 Pt  78       1.640000    2.270000   26.818001      10.0000    195.0840
  479   3 Pt  78       4.490000    2.350000   26.828000      10.0000    195.0840
  480   3 Pt  78       7.340000    2.220000   26.888000      10.0000    195.0840
  481   3 Pt  78      10.100000    2.450000   26.948000      10.0000    195.0840
  482   3 Pt  78      12.880001    2.350000   27.018000      10.0000    195.0840
  483   3 Pt  78      -1.270000    2.290000   26.768001      10.0000    195.0840
  484   3 Pt  78       3.040000    4.730000   26.708000      10.0000    195.0840
  485   3 Pt  78       5.850000    4.800000   26.818001      10.0000    195.0840
  486   3 Pt  78       8.660001    4.750000   26.868000      10.0000    195.0840
  487   3 Pt  78      11.510000    4.880000   26.928000      10.0000    195.0840
  488   3 Pt  78      -2.630000    4.810000   26.748000      10.0000    195.0840
  489   3 Pt  78       0.170000    4.690000   26.998000      10.0000    195.0840
  490   3 Pt  78       4.190001    7.090001   26.878001      10.0000    195.0840
  491   3 Pt  78       7.110000    7.210000   26.908001      10.0000    195.0840
  492   3 Pt  78       9.970000    7.290000   26.958000      10.0000    195.0840
  493   3 Pt  78      -4.040000    7.120000   26.818001      10.0000    195.0840
  494   3 Pt  78      -1.210000    7.070000   26.868000      10.0000    195.0840
  495   3 Pt  78       1.580000    7.180000   27.198000      10.0000    195.0840
  496   3 Pt  78       5.600000    9.550000   26.678001      10.0000    195.0840
  497   3 Pt  78       8.500000    9.590000   26.818001      10.0000    195.0840
  498   3 Pt  78      -5.440001    9.630001   26.718000      10.0000    195.0840
  499   3 Pt  78      -2.740000    9.600000   26.818001      10.0000    195.0840
  500   3 Pt  78       0.250000    9.440001   26.818001      10.0000    195.0840
  501   3 Pt  78       2.900000    9.560000   27.028000      10.0000    195.0840
  502   3 Pt  78       7.180000   12.080001   26.988000      10.0000    195.0840
  503   3 Pt  78      -6.880000   12.170000   26.868000      10.0000    195.0840
  504   3 Pt  78      -4.050000   12.100000   26.908001      10.0000    195.0840
  505   3 Pt  78      -1.200000   11.910001   26.898000      10.0000    195.0840
[...]
 flops     5 x     5 x    96           5081932800       0.0%    100.0%      0.0%
 flops    13 x    32 x    13           5575766976       0.0%    100.0%      0.0%
 flops    13 x     5 x    96           6468833280       0.0%    100.0%      0.0%
 flops     5 x    13 x    96           6482112000       0.0%    100.0%      0.0%
 flops    13 x    20 x   112           6751180800       0.0%    100.0%      0.0%
 flops    20 x    13 x   112           6762595840       0.0%    100.0%      0.0%
 flops     5 x    20 x   112           7193984000       0.0%    100.0%      0.0%
 flops    20 x     5 x   112           7204646400       0.0%    100.0%      0.0%
 flops    13 x    13 x    96           7766234112       0.0%    100.0%      0.0%
 flops    13 x    32 x    20           8411636480       0.0%    100.0%      0.0%
 flops    20 x    32 x    13           8411636480       0.0%    100.0%      0.0%
 flops    20 x    32 x     5           8962412800       0.0%    100.0%      0.0%
 flops     5 x    32 x    20           8962412800       0.0%    100.0%      0.0%
 flops    13 x    20 x    96          11573452800       0.0%    100.0%      0.0%
 flops    20 x    13 x    96          11593021440       0.0%    100.0%      0.0%
 flops     5 x    20 x    96          12332544000       0.0%    100.0%      0.0%
 flops    20 x     5 x    96          12350822400       0.0%    100.0%      0.0%
 flops     5 x     5 x   128          44043417600       0.0%    100.0%      0.0%
 flops    13 x     5 x   128          56063221760       0.0%    100.0%      0.0%
 flops     5 x    13 x   128          56178304000       0.0%    100.0%      0.0%
 flops    20 x    20 x   112          58796236800       0.0%    100.0%      0.0%
 flops    13 x    13 x   128          67307362304       0.0%    100.0%      0.0%
 flops    20 x    32 x    20          72858009600       0.0%    100.0%      0.0%
 flops    13 x    20 x   128         100303257600       0.0%    100.0%      0.0%
 flops    20 x    13 x   128         100472852480       0.0%    100.0%      0.0%
 flops    20 x    20 x    96         100793548800       0.0%    100.0%      0.0%
 flops     5 x    20 x   128         106882048000       0.0%    100.0%      0.0%
 flops    20 x     5 x   128         107040460800       0.0%    100.0%      0.0%
 flops    20 x    20 x   128         873544089600       0.0%    100.0%      0.0%
 flops inhomo. stacks                           0       0.0%      0.0%      0.0%
 flops total                         1.915329E+12       0.0%    100.0%      0.0%
 flops max/rank                     17.720106E+09       0.0%    100.0%      0.0%
 matmuls inhomo. stacks                         0       0.0%      0.0%      0.0%
 matmuls total                           55104218       0.0%    100.0%      0.0%
 number of processed stacks                538253       0.0%    100.0%      0.0%
 average stack size                                     0.0     102.4       0.0
 marketing flops                     3.844636E+12
 -------------------------------------------------------------------------------
 # multiplications                             29
 max memory usage/rank               1.591914E+09
 # max total images/rank                        2
 # max 3D layers                                1
 # MPI messages exchanged                  107648
 MPI messages size (bytes):
  total size                        68.136452E+09
  min size                         290.304000E+03
  max size                           2.199832E+06
  average size                     632.956062E+03
 MPI breakdown and total messages size (bytes):
             size <=      128                   0                        0
       128 < size <=     8192                   0                        0
      8192 < size <=    32768                   0                        0
     32768 < size <=   131072                   0                        0
    131072 < size <=  4194304              107648              68136450792
   4194304 < size <= 16777216                   0                        0
  16777216 < size                               0                        0
 -------------------------------------------------------------------------------

 *** WARNING in dbcsr_mm.F:290 :: Using a non-square number of MPI ranks ***
 *** might lead to poor performance. Used ranks: 128 Suggested: 121 256  ***

 -------------------------------------------------------------------------------
 -                                                                             -
 -                      DBCSR MESSAGE PASSING PERFORMANCE                      -
 -                                                                             -
 -------------------------------------------------------------------------------
 ROUTINE             CALLS      AVE VOLUME [Bytes]
 MP_Bcast               46                     12.
 MP_Allreduce          306                     14.
 MP_Alltoall           805                 575122.
 MP_ISend             1856                 299389.
 MP_IRecv             1856                 293045.
 -------------------------------------------------------------------------------

 -------------------------------------------------------------------------------
 -                                                                             -
 -                                DBM STATISTICS                               -
 -                                                                             -
 -------------------------------------------------------------------------------
    M  x    N  x    K                                          COUNT     PERCENT
 -------------------------------------------------------------------------------

 -------------------------------------------------------------------------------
 -                                                                             -
 -                                GRID STATISTICS                              -
 -                                                                             -
 -------------------------------------------------------------------------------
 LP    KERNEL             BACKEND                              COUNT     PERCENT
 4     collocate general  REF                               10923066      22.54%
 4     integrate general  REF                               10793095      22.27%
 3     collocate general  REF                                7413849      15.30%
 3     integrate general  REF                                7352927      15.17%
 2     collocate general  REF                                5768955      11.90%
 2     integrate general  REF                                5555290      11.46%
 5     integrate general  REF                                 404558       0.83%
 0     collocate general  REF                                 129792       0.27%
 0     integrate general  REF                                  64896       0.13%
 1     integrate general  REF                                  64896       0.13%
 -------------------------------------------------------------------------------

 MEMORY| Estimated peak process memory [MiB]                                1775

 -------------------------------------------------------------------------------
 ----                             MULTIGRID INFO                            ----
 -------------------------------------------------------------------------------
 count for grid        1:        1092789          cutoff [a.u.]          200.00
 count for grid        2:        1088085          cutoff [a.u.]           66.67
 count for grid        3:         709927          cutoff [a.u.]           22.22
 count for grid        4:         547344          cutoff [a.u.]            7.41
 total gridlevel count  :        3438145

 -------------------------------------------------------------------------------
 -                                                                             -
 -                         MESSAGE PASSING PERFORMANCE                         -
 -                                                                             -
 -------------------------------------------------------------------------------

 ROUTINE             CALLS      AVE VOLUME [Bytes]
 MP_Group                4
 MP_Bcast             2161                 311375.
 MP_Allreduce         3112                  34300.
 MP_Sync                60
 MP_Alltoall          1642               17820017.
 MP_SendRecv           508                   6249.
 MP_ISendRecv        13716                  61740.
 MP_Wait             24486
 MP_comm_split          28
 MP_ISend            10156                 256355.
 MP_IRecv            10156                 256355.
 MP_Recv               122                1677056.
 MP_Write_All            3                1797408.
 -------------------------------------------------------------------------------


 -------------------------------------------------------------------------------
 -                                                                             -
 -                           R E F E R E N C E S                               -
 -                                                                             -
 -------------------------------------------------------------------------------
 
 CP2K version 2022.1, the CP2K developers group (2022).
 CP2K is freely available from https://www.cp2k.org/ .

 Kuehne,Thomas D.; Iannuzzi,Marcella; Del Ben,Mauro;
 Rybkin,Vladimir V.; Seewald,Patrick; Stein,Frederick; Laino,Teodoro;
 Khaliullin,Rustam Z.; Schuett,Ole; Schiffmann,Florian; Golze,Dorothea;
 Wilhelm,Jan; Chulkov,Sergey; Bani-Hashemian,Mohammad Hossein;
 Weber,Valery; Borstnik,Urban; Taillefumier,Mathieu;
 Jakobovits,Alice Shoshana; Lazzaro,Alfio; Pabst,Hans; Mueller,Tiziano;
 Schade,Robert; Guidon,Manuel; Andermatt,Samuel; Holmberg,Nico;
 Schenter,Gregory K.; Hehn,Anna; Bussy,Augustin; Belleflamme,Fabian;
 Tabacchi,Gloria; Gloess,Andreas; Lass,Michael; Bethune,Iain;
 Mundy,Christopher J.; Plessl,Christian; Watkins,Matt;
 VandeVondele,Joost; Krack,Matthias; Hutter,Juerg. 
 The Journal of Chemical Physics, 152 (19), (2020). 
 CP2K: An electronic structure and molecular dynamics software package -
 Quickstep: Efficient and accurate electronic structure calculations.
 https://doi.org/10.1063/5.0007045

 Goerigk, Lars; Hansen, Andreas; Bauer, Christoph; Ehrlich, Stephan;
 Najibi, Asim; Grimme, Stefan. , 19 (48), (2017). 
 A look at the density functional theory zoo with the advanced GMTKN55 database
 for general main group thermochemistry, kinetics and noncovalent interactions.
 https://doi.org/10.1039/C7CP04913G

 Bani-Hashemian, MH; Bruck, S; Luisier, M; VandeVondele, J. 
 JOURNAL OF CHEMICAL PHYSICS, 144 (4), 044113 (2016). 
 A generalized Poisson solver for first-principles device simulations.
 https://doi.org/10.1063/1.4940796

 Schuett, Ole; Messmer, Peter; Hutter, Juerg; VandeVondele, Joost. 
 Electronic Structure Calculations on Graphics Processing Units, John
 Wiley & Sons, Ltd, 173-190 (2016). 
 GPU-Accelerated Sparse Matrix-Matrix Multiplication for
 Linear Scaling Density Functional Theory.
 https://doi.org/10.1002/9781118670712.ch8

 Heinecke, A; Henry, G; Hutchinson, M; Pabst, H. 
 Proceedings of Intl. Supercomputing Conference, 981-991 (2016). 
 LIBXSMM: Accelerating Small Matrix Multiplications
 by Runtime Code Generation.
 https://doi.org/10.1109/SC.2016.83

 Borstnik, U; VandeVondele, J; Weber, V; Hutter, J. 
 PARALLEL COMPUTING, 40 (5-6), 47-58 (2014). 
 Sparse matrix multiplication: The distributed block-compressed sparse
 row library.
 https://doi.org/10.1016/j.parco.2014.03.012

 Hutter, J; Iannuzzi, M; Schiffmann, F; VandeVondele, J. 
 WIREs Comput Mol Sci., 4 (1), 15-25 (2014). 
 CP2K: atomistic simulations of condensed matter systems.
 https://doi.org/10.1002/wcms.1159

 Marek, A; Blum, V; Johanni, R; Havu, V; Lang, B; Auckenthaler, T;
 Heinecke, A; Bungartz, H; Lederer, H. 
 Journal of Physics: Condensed Matter, 26 (21), (2014). 
 The ELPA library: scalable parallel eigenvalue solutions for
 electronic structure
 theory and computational science.
 https://doi.org/10.1088/0953-8984/26/21/213201

 Grimme, S; Ehrlich, S; Goerigk, L. 
 JOURNAL OF COMPUTATIONAL CHEMISTRY, 32, 1456 (2011). 
 Effect of the damping function in dispersion corrected density functional theory.
 https://doi.org/10.1002/jcc.21759

 Grimme, S; Antony, J; Ehrlich, S; Krieg, H. 
 JOURNAL OF CHEMICAL PHYSICS, 132 (15), 154104 (2010). 
 A consistent and accurate ab initio parametrization of density
 functional dispersion correction (DFT-D) for the 94 elements H-Pu.
 https://doi.org/10.1063/1.3382344

 VandeVondele, J; Hutter, J. 
 JOURNAL OF CHEMICAL PHYSICS, 127 (11), 114105 (2007). 
 Gaussian basis sets for accurate calculations on molecular systems in
 gas and condensed phases.
 https://doi.org/10.1063/1.2770708

 Krack, M. 
 THEORETICAL CHEMISTRY ACCOUNTS, 114 (1-3), 145-152 (2005). 
 Pseudopotentials for H to Kr optimized for gradient-corrected
 exchange-correlation functionals.
 https://doi.org/10.1007/s00214-005-0655-y

 VandeVondele, J; Krack, M; Mohamed, F; Parrinello, M; Chassaing, T;
 Hutter, J. COMPUTER PHYSICS COMMUNICATIONS, 167 (2), 103-128 (2005). 
 QUICKSTEP: Fast and accurate density functional calculations using a
 mixed Gaussian and plane waves approach.
 https://doi.org/10.1016/j.cpc.2004.12.014

 Frigo, M; Johnson, SG. 
 PROCEEDINGS OF THE IEEE, 93 (2), 216-231 (2005). 
 The design and implementation of FFTW3.
 https://doi.org/10.1109/JPROC.2004.840301

 Hartwigsen, C; Goedecker, S; Hutter, J. 
 PHYSICAL REVIEW B, 58 (7), 3641-3662 (1998). 
 Relativistic separable dual-space Gaussian pseudopotentials from H to Rn.
 https://doi.org/10.1103/PhysRevB.58.3641

 Lippert, G; Hutter, J; Parrinello, M. 
 MOLECULAR PHYSICS, 92 (3), 477-487 (1997). 
 A hybrid Gaussian and plane wave density functional scheme.
 https://doi.org/10.1080/002689797170220

 Perdew, JP; Burke, K; Ernzerhof, M. 
 PHYSICAL REVIEW LETTERS, 77 (18), 3865-3868 (1996). 
 Generalized gradient approximation made simple.
 https://doi.org/10.1103/PhysRevLett.77.3865

 Goedecker, S; Teter, M; Hutter, J. 
 PHYSICAL REVIEW B, 54 (3), 1703-1710 (1996). 
 Separable dual-space Gaussian pseudopotentials.
 https://doi.org/10.1103/PhysRevB.54.1703


 -------------------------------------------------------------------------------
 -                                                                             -
 -                                T I M I N G                                  -
 -                                                                             -
 -------------------------------------------------------------------------------
 SUBROUTINE                       CALLS  ASD         SELF TIME        TOTAL TIME
                                MAXIMUM       AVERAGE  MAXIMUM  AVERAGE  MAXIMUM
 CP2K                                 1  1.0    0.025    0.035  194.596  194.597
 qs_forces                            1  2.0    0.002    0.002  194.067  194.068
 qs_energies                          1  3.0    0.000    0.000  187.953  187.962
 scf_env_do_scf                       1  4.0    0.000    0.000  178.631  178.768
 scf_env_do_scf_inner_loop           26  5.0    0.002    0.005  178.627  178.765
 rebuild_ks_matrix                   27  6.9    0.000    0.000   98.457   98.486
 qs_ks_build_kohn_sham_matrix        27  7.9    0.005    0.006   98.457   98.486
 qs_ks_update_qs_env                 26  6.0    0.000    0.000   94.423   94.451
 pw_transfer                       1408 12.2    0.103    0.129   62.372   63.653
 fft_wrap_pw1pw2                   1408 13.2    0.014    0.016   62.269   63.538
 fft_wrap_pw1pw2_200               1246 14.4    4.160    4.905   61.427   62.682
 pw_poisson_solve                    27  8.9    0.003    0.007   53.221   53.253
 fft3d_ps                          1408 15.2   17.698   19.688   50.229   51.992
 qs_scf_new_mos                      26  6.0    0.001    0.004   50.463   50.531
 implicit_poisson_solver_mixed_      27  9.9    1.119    1.376   50.133   50.178
 eigensolver                         26  7.0    0.002    0.003   47.620   47.751
 derive_fft                         162 12.1    0.010    0.012   35.164   35.258
 cp_fm_diag_elpa                     28  8.1    0.000    0.000   34.245   34.349
 cp_fm_redistribute_end              28  9.1    4.606   33.939    4.663   33.977
 cp_fm_diag_elpa_base                28  9.0   28.852   33.134   29.138   33.447
 mp_alltoall_z22v                  1408 17.2   27.335   33.401   27.335   33.401
 qs_rho_update_rho_low               27  6.0    0.000    0.001   30.409   30.420
 calculate_rho_elec                  27  7.0    0.052    0.064   30.409   30.420
 apply_P_operator                   135 11.1    0.721    0.800   30.121   30.202
 sum_up_and_integrate                27  8.9    0.147    0.210   29.930   29.961
 integrate_v_rspace                  27  9.9    0.001    0.002   29.783   29.850
 grid_collocate_task_list            27  8.0   19.302   23.706   19.302   23.706
 grid_integrate_task_list            27 10.9   17.996   21.716   17.996   21.716
 x_to_yz                            811 16.4    3.453    4.397   20.549   21.437
 rs_pw_transfer                     220 10.4    0.003    0.003   13.951   16.717
 yz_to_x                            435 16.4    1.189    1.370   11.323   15.295
 cp_fm_triangular_multiply           78  8.0   14.943   15.159   14.943   15.159
 qs_vxc_create                       27  8.9    0.001    0.001   13.617   13.786
 xc_vxc_pw_create                    27  9.9    0.232    0.291   13.616   13.785
 density_rs2pw                       27  8.0    0.002    0.002   10.443   13.290
 xc_pw_derive                       162 11.9    0.002    0.003    9.619   10.670
 mp_waitany                       10156 12.3    6.393    9.180    6.393    9.180
 rs_pw_transfer_RS2PW_200            29  9.9    1.888    2.128    6.396    9.143
 apply_poisson_operator_fft          27 10.9    0.000    0.000    8.780    8.933
 apply_inv_laplace_operator_fft      83 11.6    0.208    0.245    8.022    8.323
 potential_pw2rs                     27 10.9    0.008    0.009    7.750    7.818
 mp_alltoall_d11v                   400 10.3    4.875    7.622    4.875    7.622
 xc_pw_divergence                    27 10.9    0.001    0.002    6.519    7.295
 xc_rho_set_and_dset_create          27 10.9    0.135    0.173    6.611    7.148
 rs_gather_matrices                  27 10.9    0.031    0.040    4.025    6.706
 ps_implicit_compute_error_fft       54 10.9    0.340    0.459    5.964    6.383
 ps_implicit_compute_veps            27 10.9    0.157    0.188    5.923    6.023
 pw_scatter_p                       892 15.3    5.000    5.887    5.000    5.887
 scf_post_calculation_gpw             1  4.0    0.000    0.001    5.714    5.719
 write_available_results              1  5.0    0.000    0.000    5.713    5.718
 rs_pw_transfer_PW2RS_200            29 12.6    2.194    2.322    4.574    4.724
 pw_derive                          648 13.0    4.114    4.422    4.114    4.422
 gspace_mixing                       25  6.0    0.048    0.058    4.255    4.259
 qs_ks_update_qs_env_forces           1  3.0    0.000    0.000    4.077    4.078
 -------------------------------------------------------------------------------

 The number of warnings for this run is : 1
 
 -------------------------------------------------------------------------------
  **** **** ******  **  PROGRAM ENDED AT                 2023-12-01 20:47:49.749
 ***** ** ***  *** **   PROGRAM RAN ON                                     cu384
 **    ****   ******    PROGRAM RAN BY                                     jxzhu
 ***** **    ** ** **   PROGRAM PROCESS ID                                 56094
  **** **  *******  **  PROGRAM STOPPED IN /public/home/jxzhu/tmp_calc/b03d6c6b9
                                           93b6252a26610ffedbc6831f50ea84c/calc/
                                           000000.000/search_lo.000000
