 DBCSR| CPU Multiplication driver                                           XSMM
 DBCSR| Multrec recursion limit                                              512
 DBCSR| Multiplication stack size                                           1000
 DBCSR| Maximum elements for images                                    UNLIMITED
 DBCSR| Multiplicative factor virtual images                                   1
 DBCSR| Use multiplication densification                                       T
 DBCSR| Multiplication size stacks                                             3
 DBCSR| Use memory pool for CPU allocation                                     F
 DBCSR| Number of 3D layers                                               SINGLE
 DBCSR| Use MPI memory allocation                                              F
 DBCSR| Use RMA algorithm                                                      F
 DBCSR| Use Communication thread                                               T
 DBCSR| Communication thread load                                             87
 DBCSR| MPI: My node id                                                        0
 DBCSR| MPI: Number of nodes                                                  32
 DBCSR| OMP: Current number of threads                                         1
 DBCSR| OMP: Max number of threads                                             1
 DBCSR| Split modifier for TAS multiplication algorithm                  1.0E+00


  **** **** ******  **  PROGRAM STARTED AT               2023-12-02 19:38:02.456
 ***** ** ***  *** **   PROGRAM STARTED ON                                 cu087
 **    ****   ******    PROGRAM STARTED BY                                 jxzhu
 ***** **    ** ** **   PROGRAM PROCESS ID                                 47275
  **** **  *******  **  PROGRAM STARTED IN /public/home/jxzhu/tmp_calc/0a3cf48f3
                                           e4bfd23fd4415c30d90d8b4c0a87311/calc/
                                           ref.000

 CP2K| version string:                                       CP2K version 2022.1
 CP2K| source code revision number:                                  git:2caeb6f
 CP2K| cp2kflags: omp libint fftw3 libxc elpa parallel mpi3 scalapack cosma xsmm
 CP2K|             plumed2 spglib mkl sirius libvori libbqb
 CP2K| is freely available from                            https://www.cp2k.org/
 CP2K| Program compiled at                           Mon Jul 3 17:37:06 CST 2023
 CP2K| Program compiled on                                                 mu003
 CP2K| Program compiled for                                                local
 CP2K| Data directory path                             /public/home/jxzhu/basis/
 CP2K| Input file name                                                 input.inp
 
 GLOBAL| Force Environment number                                              1
 GLOBAL| Basis set file name                                        BASIS_MOLOPT
 GLOBAL| Potential file name                                      GTH_POTENTIALS
 GLOBAL| MM Potential file name                                     MM_POTENTIAL
 GLOBAL| Coordinate file name                                          coord.xyz
 GLOBAL| Method name                                                        CP2K
 GLOBAL| Project name                                                       cp2k
 GLOBAL| Run type                                                   ENERGY_FORCE
 GLOBAL| FFT library                                                       FFTW3
 GLOBAL| Diagonalization library                                            ELPA
 GLOBAL| Minimum number of eigenvectors for ELPA usage                        16
 GLOBAL| Orthonormality check for eigenvectors                          DISABLED
 GLOBAL| Matrix multiplication library                                     COSMA
 GLOBAL| All-to-all communication in single precision                          F
 GLOBAL| FFTs using library dependent lengths                                  T
 GLOBAL| Grid backend                                                       AUTO
 GLOBAL| Global print level                                               MEDIUM
 GLOBAL| MPI I/O enabled                                                       T
 GLOBAL| Total number of message passing processes                            32
 GLOBAL| Number of threads for this process                                    1
 GLOBAL| This output is from process                                           0
 GLOBAL| Stack size for threads created by OpenMP (OMP_STACKSIZE)        default
 GLOBAL| CPU model name                 Intel(R) Xeon(R) Gold 6338 CPU @ 2.00GHz
 GLOBAL| CPUID                                                              1003

 MEMORY| system memory details [Kb]
 MEMORY|                        rank 0           min           max       average
 MEMORY| MemTotal            263619172     263619172     263619172     263619172
 MEMORY| MemFree             223208392     223208392     223208392     223208392
 MEMORY| Buffers                  3320          3320          3320          3320
 MEMORY| Cached                2285044       2285044       2285044       2285044
 MEMORY| Slab                  1445020       1445020       1445020       1445020
 MEMORY| SReclaimable           216884        216884        216884        216884
 MEMORY| MemLikelyFree       225713640     225713640     225713640     225713640


 *** Fundamental physical constants (SI units) ***

 *** Literature: B. J. Mohr and B. N. Taylor,
 ***             CODATA recommended values of the fundamental physical
 ***             constants: 2006, Web Version 5.1
 ***             http://physics.nist.gov/constants

 Speed of light in vacuum [m/s]                             2.99792458000000E+08
 Magnetic constant or permeability of vacuum [N/A**2]       1.25663706143592E-06
 Electric constant or permittivity of vacuum [F/m]          8.85418781762039E-12
 Planck constant (h) [J*s]                                  6.62606896000000E-34
 Planck constant (h-bar) [J*s]                              1.05457162825177E-34
 Elementary charge [C]                                      1.60217648700000E-19
 Electron mass [kg]                                         9.10938215000000E-31
 Electron g factor [ ]                                     -2.00231930436220E+00
 Proton mass [kg]                                           1.67262163700000E-27
 Fine-structure constant                                    7.29735253760000E-03
 Rydberg constant [1/m]                                     1.09737315685270E+07
 Avogadro constant [1/mol]                                  6.02214179000000E+23
 Boltzmann constant [J/K]                                   1.38065040000000E-23
 Atomic mass unit [kg]                                      1.66053878200000E-27
 Bohr radius [m]                                            5.29177208590000E-11

 *** Conversion factors ***

 [u] -> [a.u.]                                              1.82288848426455E+03
 [Angstrom] -> [Bohr] = [a.u.]                              1.88972613288564E+00
 [a.u.] = [Bohr] -> [Angstrom]                              5.29177208590000E-01
 [a.u.] -> [s]                                              2.41888432650478E-17
 [a.u.] -> [fs]                                             2.41888432650478E-02
 [a.u.] -> [J]                                              4.35974393937059E-18
 [a.u.] -> [N]                                              8.23872205491840E-08
 [a.u.] -> [K]                                              3.15774647902944E+05
 [a.u.] -> [kJ/mol]                                         2.62549961709828E+03
 [a.u.] -> [kcal/mol]                                       6.27509468713739E+02
 [a.u.] -> [Pa]                                             2.94210107994716E+13
 [a.u.] -> [bar]                                            2.94210107994716E+08
 [a.u.] -> [atm]                                            2.90362800883016E+08
 [a.u.] -> [eV]                                             2.72113838565563E+01
 [a.u.] -> [Hz]                                             6.57968392072181E+15
 [a.u.] -> [1/cm] (wave numbers)                            2.19474631370540E+05
 [a.u./Bohr**2] -> [1/cm]                                   5.14048714338585E+03
 

 CELL_TOP| Volume [angstrom^3]:                                     12686.086737
 CELL_TOP| Vector a [angstrom    16.869     0.000     0.000   |a| =    16.869000
 CELL_TOP| Vector b [angstrom    -8.434    14.609     0.000   |b| =    16.868929
 CELL_TOP| Vector c [angstrom     0.000     0.000    51.478   |c| =    51.477900
 CELL_TOP| Angle (b,c), alpha [degree]:                                90.000000
 CELL_TOP| Angle (a,c), beta  [degree]:                                90.000000
 CELL_TOP| Angle (a,b), gamma [degree]:                               120.000140
 CELL_TOP| Numerically orthorhombic:                                          NO
 
 GENERATE|  Preliminary Number of Bonds generated:                             0
 GENERATE|  Achieved consistency in connectivity generation.

 CELL| Volume [angstrom^3]:                                         12686.086737
 CELL| Vector a [angstrom]:      16.869     0.000     0.000   |a| =    16.869000
 CELL| Vector b [angstrom]:      -8.434    14.609     0.000   |b| =    16.868929
 CELL| Vector c [angstrom]:       0.000     0.000    51.478   |c| =    51.477900
 CELL| Angle (b,c), alpha [degree]:                                    90.000000
 CELL| Angle (a,c), beta  [degree]:                                    90.000000
 CELL| Angle (a,b), gamma [degree]:                                   120.000140
 CELL| Numerically orthorhombic:                                              NO

 CELL_REF| Volume [angstrom^3]:                                     12686.086737
 CELL_REF| Vector a [angstrom    16.869     0.000     0.000   |a| =    16.869000
 CELL_REF| Vector b [angstrom    -8.434    14.609     0.000   |b| =    16.868929
 CELL_REF| Vector c [angstrom     0.000     0.000    51.478   |c| =    51.477900
 CELL_REF| Angle (b,c), alpha [degree]:                                90.000000
 CELL_REF| Angle (a,c), beta  [degree]:                                90.000000
 CELL_REF| Angle (a,b), gamma [degree]:                               120.000140
 CELL_REF| Numerically orthorhombic:                                          NO

 *******************************************************************************
 *******************************************************************************
 **                                                                           **
 **     #####                         ##              ##                      **
 **    ##   ##            ##          ##              ##                      **
 **   ##     ##                       ##            ######                    **
 **   ##     ##  ##   ##  ##   #####  ##  ##   ####   ##    #####    #####    **
 **   ##     ##  ##   ##  ##  ##      ## ##   ##      ##   ##   ##  ##   ##   **
 **   ##  ## ##  ##   ##  ##  ##      ####     ###    ##   ######   ######    **
 **    ##  ###   ##   ##  ##  ##      ## ##      ##   ##   ##       ##        **
 **     #######   #####   ##   #####  ##  ##  ####    ##    #####   ##        **
 **           ##                                                    ##        **
 **                                                                           **
 **                                                ... make the atoms dance   **
 **                                                                           **
 **            Copyright (C) by CP2K developers group (2000-2022)             **
 **                      J. Chem. Phys. 152, 194103 (2020)                    **
 **                                                                           **
 *******************************************************************************

 DFT| Spin restricted Kohn-Sham (RKS) calculation                            RKS
 DFT| Multiplicity                                                             1
 DFT| Number of spin states                                                    1
 DFT| Charge                                                                   0
 DFT| Self-interaction correction (SIC)                                       NO
 DFT| Cutoffs: density                                              1.000000E-10
 DFT|          gradient                                             1.000000E-10
 DFT|          tau                                                  1.000000E-10
 DFT|          cutoff_smoothing_range                               0.000000E+00
 DFT| XC density smoothing                                                  NONE
 DFT| XC derivatives                                                          PW

 FUNCTIONAL| PBE:
 FUNCTIONAL| J.P.Perdew, K.Burke, M.Ernzerhof, Phys. Rev. Letter, vol. 77, n 18,
 FUNCTIONAL|  pp. 3865-3868, (1996){spin unpolarized}                           

 vdW POTENTIAL|                                                   Pair Potential
 vdW POTENTIAL|          DFT-D3 (Version 3.1)
 vdW POTENTIAL|          Potential Form: S. Grimme et al, JCP 132: 154104 (2010)
 vdW POTENTIAL|          Zero Damping
 vdW POTENTIAL|          Cutoff Radius [Bohr]:                             20.00
 vdW POTENTIAL|          s6 Scaling Factor:                               1.0000
 vdW POTENTIAL|          sr6 Scaling Factor:                              1.2170
 vdW POTENTIAL|          s8 Scaling Factor:                               0.7220
 vdW POTENTIAL|          Cutoff for CN calculation:                   0.1000E-05

 QS| Method:                                                                 GPW
 QS| Density plane wave grid type                        NON-SPHERICAL FULLSPACE
 QS| Number of grid levels:                                                    4
 QS| Density cutoff [a.u.]:                                                200.0
 QS| Multi grid cutoff [a.u.]: 1) grid level                               200.0
 QS|                           2) grid level                                66.7
 QS|                           3) grid level                                22.2
 QS|                           4) grid level                                 7.4
 QS| Grid level progression factor:                                          3.0
 QS| Relative density cutoff [a.u.]:                                        20.0
 QS| Interaction thresholds: eps_pgf_orb:                                3.2E-07
 QS|                         eps_filter_matrix:                          0.0E+00
 QS|                         eps_core_charge:                            1.0E-15
 QS|                         eps_rho_gspace:                             1.0E-13
 QS|                         eps_rho_rspace:                             1.0E-13
 QS|                         eps_gvg_rspace:                             3.2E-07
 QS|                         eps_ppl:                                    1.0E-02
 QS|                         eps_ppnl:                                   3.2E-09


 ATOMIC KIND INFORMATION

  1. Atomic kind: Pt                                    Number of atoms:     216

     Orbital Basis Set                      DZVP-A5-Q10-323-MOL-T1-DERIVED_SET-1

       Number of orbital shell sets:                                           1
       Number of orbital shells:                                               6
       Number of primitive Cartesian functions:                                5
       Number of Cartesian basis functions:                                   23
       Number of spherical basis functions:                                   20
       Norm type:                                                              2

       Normalised Cartesian orbitals:

                        Set   Shell   Orbital            Exponent    Coefficient

                          1       1    2s                2.521825       0.177473
                                                         1.453920      -0.063399
                                                         0.614053      -0.407089
                                                         0.232656       0.262254
                                                         0.074788       0.047371

                          1       2    3s                2.521825      -0.049056
                                                         1.453920       0.044904
                                                         0.614053      -0.009756
                                                         0.232656      -0.144709
                                                         0.074788       0.144085

                          1       3    3px               2.521825      -0.317572
                                                         1.453920       0.534826
                                                         0.614053      -0.489458
                                                         0.232656       0.245631
                                                         0.074788       0.018221
                          1       3    3py               2.521825      -0.317572
                                                         1.453920       0.534826
                                                         0.614053      -0.489458
                                                         0.232656       0.245631
                                                         0.074788       0.018221
                          1       3    3pz               2.521825      -0.317572
                                                         1.453920       0.534826
                                                         0.614053      -0.489458
                                                         0.232656       0.245631
                                                         0.074788       0.018221

                          1       4    4dx2              2.521825       3.008522
                                                         1.453920      -1.224251
                                                         0.614053       0.225691
                                                         0.232656       0.125144
                                                         0.074788      -0.015348
                          1       4    4dxy              2.521825       5.210912
                                                         1.453920      -2.120465
                                                         0.614053       0.390909
                                                         0.232656       0.216756
                                                         0.074788      -0.026584
                          1       4    4dxz              2.521825       5.210912
                                                         1.453920      -2.120465
                                                         0.614053       0.390909
                                                         0.232656       0.216756
                                                         0.074788      -0.026584
                          1       4    4dy2              2.521825       3.008522
                                                         1.453920      -1.224251
                                                         0.614053       0.225691
                                                         0.232656       0.125144
                                                         0.074788      -0.015348
                          1       4    4dyz              2.521825       5.210912
                                                         1.453920      -2.120465
                                                         0.614053       0.390909
                                                         0.232656       0.216756
                                                         0.074788      -0.026584
                          1       4    4dz2              2.521825       3.008522
                                                         1.453920      -1.224251
                                                         0.614053       0.225691
                                                         0.232656       0.125144
                                                         0.074788      -0.015348

                          1       5    5dx2              2.521825       0.698026
                                                         1.453920      -1.511486
                                                         0.614053      -0.335394
                                                         0.232656      -0.025564
                                                         0.074788      -0.002699
                          1       5    5dxy              2.521825       1.209017
                                                         1.453920      -2.617970
                                                         0.614053      -0.580920
                                                         0.232656      -0.044277
                                                         0.074788      -0.004674
                          1       5    5dxz              2.521825       1.209017
                                                         1.453920      -2.617970
                                                         0.614053      -0.580920
                                                         0.232656      -0.044277
                                                         0.074788      -0.004674
                          1       5    5dy2              2.521825       0.698026
                                                         1.453920      -1.511486
                                                         0.614053      -0.335394
                                                         0.232656      -0.025564
                                                         0.074788      -0.002699
                          1       5    5dyz              2.521825       1.209017
                                                         1.453920      -2.617970
                                                         0.614053      -0.580920
                                                         0.232656      -0.044277
                                                         0.074788      -0.004674
                          1       5    5dz2              2.521825       0.698026
                                                         1.453920      -1.511486
                                                         0.614053      -0.335394
                                                         0.232656      -0.025564
                                                         0.074788      -0.002699

                          1       6    6dx2              2.521825       0.831079
                                                         1.453920      -0.709226
                                                         0.614053      -0.137351
                                                         0.232656       0.068642
                                                         0.074788       0.011745
                          1       6    6dxy              2.521825       1.439472
                                                         1.453920      -1.228415
                                                         0.614053      -0.237899
                                                         0.232656       0.118891
                                                         0.074788       0.020343
                          1       6    6dxz              2.521825       1.439472
                                                         1.453920      -1.228415
                                                         0.614053      -0.237899
                                                         0.232656       0.118891
                                                         0.074788       0.020343
                          1       6    6dy2              2.521825       0.831079
                                                         1.453920      -0.709226
                                                         0.614053      -0.137351
                                                         0.232656       0.068642
                                                         0.074788       0.011745
                          1       6    6dyz              2.521825       1.439472
                                                         1.453920      -1.228415
                                                         0.614053      -0.237899
                                                         0.232656       0.118891
                                                         0.074788       0.020343
                          1       6    6dz2              2.521825       0.831079
                                                         1.453920      -0.709226
                                                         0.614053      -0.137351
                                                         0.232656       0.068642
                                                         0.074788       0.011745

       Atomic covalent radius [Angstrom]:                                  1.300

       Atomic van der Waals radius [Angstrom]:                             1.750

     GTH Potential information for                                   GTH-PBE-q10

       Description:                       Goedecker-Teter-Hutter pseudopotential
                                           Goedecker et al., PRB 54, 1703 (1996)
                                          Hartwigsen et al., PRB 58, 3641 (1998)
                                                      Krack, TCA 114, 145 (2005)

       Gaussian exponent of the core charge distribution:               1.317676
       Electronic configuration (s p d ...):                           1   0   9

       Parameters of the local part of the GTH pseudopotential:

                          rloc        C1          C2          C3          C4
                        0.616000   11.313635

       Parameters of the non-local part of the GTH pseudopotential:

                   l      r(l)      h(i,j,l)

                   0    0.550904    4.733491   -1.784594
                                   -1.784594    2.303901
                   1    0.674138    2.534798   -1.778066
                                   -1.778066    2.103836
                   2    0.457392   -7.264011    2.558665
                                    2.558665   -2.901253


 MOLECULE KIND INFORMATION


 All atoms are their own molecule, skipping detailed information


 TOTAL NUMBERS AND MAXIMUM NUMBERS

  Total number of            - Atomic kinds:                                   1
                             - Atoms:                                        216
                             - Shell sets:                                   216
                             - Shells:                                      1296
                             - Primitive Cartesian functions:               1080
                             - Cartesian basis functions:                   4968
                             - Spherical basis functions:                   4320

  Maximum angular momentum of- Orbital basis functions:                        2
                             - Local part of the GTH pseudopotential:          0
                             - Non-local part of the GTH pseudopotential:      4


 MODULE QUICKSTEP:  ATOMIC COORDINATES IN angstrom

 Atom  Kind  Element       X           Y           Z          Z(eff)       Mass
    1   1 Pt  78       1.405746    0.811608   20.000000      10.0000    195.0840
    2   1 Pt  78       4.217238    0.811608   20.000000      10.0000    195.0840
    3   1 Pt  78       7.028730    0.811608   20.000000      10.0000    195.0840
    4   1 Pt  78       9.840222    0.811608   20.000000      10.0000    195.0840
    5   1 Pt  78      12.651714    0.811608   20.000000      10.0000    195.0840
    6   1 Pt  78      15.463206    0.811608   20.000000      10.0000    195.0840
    7   1 Pt  78       2.811492    3.246431   20.000000      10.0000    195.0840
    8   1 Pt  78       5.622984    3.246431   20.000000      10.0000    195.0840
    9   1 Pt  78       8.434476    3.246431   20.000000      10.0000    195.0840
   10   1 Pt  78      11.245968    3.246431   20.000000      10.0000    195.0840
   11   1 Pt  78      14.057460    3.246431   20.000000      10.0000    195.0840
   12   1 Pt  78      16.868952    3.246431   20.000000      10.0000    195.0840
   13   1 Pt  78       4.217238    5.681255   20.000000      10.0000    195.0840
   14   1 Pt  78       7.028730    5.681255   20.000000      10.0000    195.0840
   15   1 Pt  78       9.840222    5.681255   20.000000      10.0000    195.0840
   16   1 Pt  78      12.651714    5.681255   20.000000      10.0000    195.0840
   17   1 Pt  78      15.463206    5.681255   20.000000      10.0000    195.0840
   18   1 Pt  78      18.274697    5.681255   20.000000      10.0000    195.0840
   19   1 Pt  78       5.622984    8.116078   20.000000      10.0000    195.0840
   20   1 Pt  78       8.434476    8.116078   20.000000      10.0000    195.0840
   21   1 Pt  78      11.245968    8.116078   20.000000      10.0000    195.0840
   22   1 Pt  78      14.057460    8.116078   20.000000      10.0000    195.0840
   23   1 Pt  78      16.868952    8.116078   20.000000      10.0000    195.0840
   24   1 Pt  78      19.680443    8.116078   20.000000      10.0000    195.0840
   25   1 Pt  78       7.028730   10.550902   20.000000      10.0000    195.0840
   26   1 Pt  78       9.840222   10.550902   20.000000      10.0000    195.0840
   27   1 Pt  78      12.651714   10.550902   20.000000      10.0000    195.0840
   28   1 Pt  78      15.463206   10.550902   20.000000      10.0000    195.0840
   29   1 Pt  78      18.274697   10.550902   20.000000      10.0000    195.0840
   30   1 Pt  78      21.086189   10.550902   20.000000      10.0000    195.0840
   31   1 Pt  78       8.434476   12.985725   20.000000      10.0000    195.0840
   32   1 Pt  78      11.245968   12.985725   20.000000      10.0000    195.0840
   33   1 Pt  78      14.057460   12.985725   20.000000      10.0000    195.0840
   34   1 Pt  78      16.868952   12.985725   20.000000      10.0000    195.0840
   35   1 Pt  78      19.680443   12.985725   20.000000      10.0000    195.0840
   36   1 Pt  78      22.491935   12.985725   20.000000      10.0000    195.0840
   37   1 Pt  78       0.000000    1.623216   22.295574      10.0000    195.0840
   38   1 Pt  78       2.811492    1.623216   22.295574      10.0000    195.0840
   39   1 Pt  78       5.622984    1.623216   22.295574      10.0000    195.0840
   40   1 Pt  78       8.434476    1.623216   22.295574      10.0000    195.0840
   41   1 Pt  78      11.245968    1.623216   22.295574      10.0000    195.0840
   42   1 Pt  78      14.057460    1.623216   22.295574      10.0000    195.0840
   43   1 Pt  78       1.405746    4.058039   22.295574      10.0000    195.0840
   44   1 Pt  78       4.217238    4.058039   22.295574      10.0000    195.0840
   45   1 Pt  78       7.028730    4.058039   22.295574      10.0000    195.0840
   46   1 Pt  78       9.840222    4.058039   22.295574      10.0000    195.0840
   47   1 Pt  78      12.651714    4.058039   22.295574      10.0000    195.0840
   48   1 Pt  78      15.463206    4.058039   22.295574      10.0000    195.0840
   49   1 Pt  78       2.811492    6.492862   22.295574      10.0000    195.0840
   50   1 Pt  78       5.622984    6.492862   22.295574      10.0000    195.0840
   51   1 Pt  78       8.434476    6.492862   22.295574      10.0000    195.0840
   52   1 Pt  78      11.245968    6.492862   22.295574      10.0000    195.0840
   53   1 Pt  78      14.057460    6.492862   22.295574      10.0000    195.0840
   54   1 Pt  78      16.868952    6.492862   22.295574      10.0000    195.0840
   55   1 Pt  78       4.217238    8.927686   22.295574      10.0000    195.0840
   56   1 Pt  78       7.028730    8.927686   22.295574      10.0000    195.0840
   57   1 Pt  78       9.840222    8.927686   22.295574      10.0000    195.0840
   58   1 Pt  78      12.651714    8.927686   22.295574      10.0000    195.0840
   59   1 Pt  78      15.463206    8.927686   22.295574      10.0000    195.0840
   60   1 Pt  78      18.274697    8.927686   22.295574      10.0000    195.0840
   61   1 Pt  78       5.622984   11.362509   22.295574      10.0000    195.0840
   62   1 Pt  78       8.434476   11.362509   22.295574      10.0000    195.0840
   63   1 Pt  78      11.245968   11.362509   22.295574      10.0000    195.0840
   64   1 Pt  78      14.057460   11.362509   22.295574      10.0000    195.0840
   65   1 Pt  78      16.868952   11.362509   22.295574      10.0000    195.0840
   66   1 Pt  78      19.680443   11.362509   22.295574      10.0000    195.0840
   67   1 Pt  78       7.028730   13.797333   22.295574      10.0000    195.0840
   68   1 Pt  78       9.840222   13.797333   22.295574      10.0000    195.0840
   69   1 Pt  78      12.651714   13.797333   22.295574      10.0000    195.0840
   70   1 Pt  78      15.463206   13.797333   22.295574      10.0000    195.0840
   71   1 Pt  78      18.274697   13.797333   22.295574      10.0000    195.0840
   72   1 Pt  78      21.086189   13.797333   22.295574      10.0000    195.0840
   73   1 Pt  78       0.000000    0.000000   24.591147      10.0000    195.0840
   74   1 Pt  78       2.811492    0.000000   24.591147      10.0000    195.0840
   75   1 Pt  78       5.622984    0.000000   24.591147      10.0000    195.0840
   76   1 Pt  78       8.434476    0.000000   24.591147      10.0000    195.0840
   77   1 Pt  78      11.245968    0.000000   24.591147      10.0000    195.0840
   78   1 Pt  78      14.057460    0.000000   24.591147      10.0000    195.0840
   79   1 Pt  78       1.405746    2.434823   24.591147      10.0000    195.0840
   80   1 Pt  78       4.217238    2.434823   24.591147      10.0000    195.0840
   81   1 Pt  78       7.028730    2.434823   24.591147      10.0000    195.0840
   82   1 Pt  78       9.840222    2.434823   24.591147      10.0000    195.0840
   83   1 Pt  78      12.651714    2.434823   24.591147      10.0000    195.0840
   84   1 Pt  78      15.463206    2.434823   24.591147      10.0000    195.0840
   85   1 Pt  78       2.811492    4.869647   24.591147      10.0000    195.0840
   86   1 Pt  78       5.622984    4.869647   24.591147      10.0000    195.0840
   87   1 Pt  78       8.434476    4.869647   24.591147      10.0000    195.0840
   88   1 Pt  78      11.245968    4.869647   24.591147      10.0000    195.0840
   89   1 Pt  78      14.057460    4.869647   24.591147      10.0000    195.0840
   90   1 Pt  78      16.868952    4.869647   24.591147      10.0000    195.0840
   91   1 Pt  78       4.217238    7.304470   24.591147      10.0000    195.0840
   92   1 Pt  78       7.028730    7.304470   24.591147      10.0000    195.0840
   93   1 Pt  78       9.840222    7.304470   24.591147      10.0000    195.0840
   94   1 Pt  78      12.651714    7.304470   24.591147      10.0000    195.0840
   95   1 Pt  78      15.463206    7.304470   24.591147      10.0000    195.0840
   96   1 Pt  78      18.274697    7.304470   24.591147      10.0000    195.0840
   97   1 Pt  78       5.622984    9.739294   24.591147      10.0000    195.0840
   98   1 Pt  78       8.434476    9.739294   24.591147      10.0000    195.0840
   99   1 Pt  78      11.245968    9.739294   24.591147      10.0000    195.0840
  100   1 Pt  78      14.057460    9.739294   24.591147      10.0000    195.0840
  101   1 Pt  78      16.868952    9.739294   24.591147      10.0000    195.0840
  102   1 Pt  78      19.680443    9.739294   24.591147      10.0000    195.0840
  103   1 Pt  78       7.028730   12.174117   24.591147      10.0000    195.0840
  104   1 Pt  78       9.840222   12.174117   24.591147      10.0000    195.0840
  105   1 Pt  78      12.651714   12.174117   24.591147      10.0000    195.0840
  106   1 Pt  78      15.463206   12.174117   24.591147      10.0000    195.0840
  107   1 Pt  78      18.274697   12.174117   24.591147      10.0000    195.0840
  108   1 Pt  78      21.086189   12.174117   24.591147      10.0000    195.0840
  109   1 Pt  78       1.405746    0.811608   26.886721      10.0000    195.0840
  110   1 Pt  78       4.217238    0.811608   26.886721      10.0000    195.0840
  111   1 Pt  78       7.028730    0.811608   26.886721      10.0000    195.0840
  112   1 Pt  78       9.840222    0.811608   26.886721      10.0000    195.0840
  113   1 Pt  78      12.651714    0.811608   26.886721      10.0000    195.0840
  114   1 Pt  78      15.463206    0.811608   26.886721      10.0000    195.0840
  115   1 Pt  78       2.811492    3.246431   26.886721      10.0000    195.0840
  116   1 Pt  78       5.622984    3.246431   26.886721      10.0000    195.0840
  117   1 Pt  78       8.434476    3.246431   26.886721      10.0000    195.0840
  118   1 Pt  78      11.245968    3.246431   26.886721      10.0000    195.0840
  119   1 Pt  78      14.057460    3.246431   26.886721      10.0000    195.0840
  120   1 Pt  78      16.868952    3.246431   26.886721      10.0000    195.0840
  121   1 Pt  78       4.217238    5.681255   26.886721      10.0000    195.0840
  122   1 Pt  78       7.028730    5.681255   26.886721      10.0000    195.0840
  123   1 Pt  78       9.840222    5.681255   26.886721      10.0000    195.0840
  124   1 Pt  78      12.651714    5.681255   26.886721      10.0000    195.0840
  125   1 Pt  78      15.463206    5.681255   26.886721      10.0000    195.0840
  126   1 Pt  78      18.274697    5.681255   26.886721      10.0000    195.0840
  127   1 Pt  78       5.622984    8.116078   26.886721      10.0000    195.0840
  128   1 Pt  78       8.434476    8.116078   26.886721      10.0000    195.0840
  129   1 Pt  78      11.245968    8.116078   26.886721      10.0000    195.0840
  130   1 Pt  78      14.057460    8.116078   26.886721      10.0000    195.0840
  131   1 Pt  78      16.868952    8.116078   26.886721      10.0000    195.0840
  132   1 Pt  78      19.680443    8.116078   26.886721      10.0000    195.0840
  133   1 Pt  78       7.028730   10.550902   26.886721      10.0000    195.0840
  134   1 Pt  78       9.840222   10.550902   26.886721      10.0000    195.0840
  135   1 Pt  78      12.651714   10.550902   26.886721      10.0000    195.0840
  136   1 Pt  78      15.463206   10.550902   26.886721      10.0000    195.0840
  137   1 Pt  78      18.274697   10.550902   26.886721      10.0000    195.0840
  138   1 Pt  78      21.086189   10.550902   26.886721      10.0000    195.0840
  139   1 Pt  78       8.434476   12.985725   26.886721      10.0000    195.0840
  140   1 Pt  78      11.245968   12.985725   26.886721      10.0000    195.0840
  141   1 Pt  78      14.057460   12.985725   26.886721      10.0000    195.0840
  142   1 Pt  78      16.868952   12.985725   26.886721      10.0000    195.0840
  143   1 Pt  78      19.680443   12.985725   26.886721      10.0000    195.0840
  144   1 Pt  78      22.491935   12.985725   26.886721      10.0000    195.0840
  145   1 Pt  78       0.000000    1.623216   29.182294      10.0000    195.0840
  146   1 Pt  78       2.811492    1.623216   29.182294      10.0000    195.0840
  147   1 Pt  78       5.622984    1.623216   29.182294      10.0000    195.0840
  148   1 Pt  78       8.434476    1.623216   29.182294      10.0000    195.0840
  149   1 Pt  78      11.245968    1.623216   29.182294      10.0000    195.0840
  150   1 Pt  78      14.057460    1.623216   29.182294      10.0000    195.0840
  151   1 Pt  78       1.405746    4.058039   29.182294      10.0000    195.0840
  152   1 Pt  78       4.217238    4.058039   29.182294      10.0000    195.0840
  153   1 Pt  78       7.028730    4.058039   29.182294      10.0000    195.0840
  154   1 Pt  78       9.840222    4.058039   29.182294      10.0000    195.0840
  155   1 Pt  78      12.651714    4.058039   29.182294      10.0000    195.0840
  156   1 Pt  78      15.463206    4.058039   29.182294      10.0000    195.0840
  157   1 Pt  78       2.811492    6.492862   29.182294      10.0000    195.0840
  158   1 Pt  78       5.622984    6.492862   29.182294      10.0000    195.0840
  159   1 Pt  78       8.434476    6.492862   29.182294      10.0000    195.0840
  160   1 Pt  78      11.245968    6.492862   29.182294      10.0000    195.0840
  161   1 Pt  78      14.057460    6.492862   29.182294      10.0000    195.0840
  162   1 Pt  78      16.868952    6.492862   29.182294      10.0000    195.0840
  163   1 Pt  78       4.217238    8.927686   29.182294      10.0000    195.0840
  164   1 Pt  78       7.028730    8.927686   29.182294      10.0000    195.0840
  165   1 Pt  78       9.840222    8.927686   29.182294      10.0000    195.0840
  166   1 Pt  78      12.651714    8.927686   29.182294      10.0000    195.0840
  167   1 Pt  78      15.463206    8.927686   29.182294      10.0000    195.0840
  168   1 Pt  78      18.274697    8.927686   29.182294      10.0000    195.0840
  169   1 Pt  78       5.622984   11.362509   29.182294      10.0000    195.0840
  170   1 Pt  78       8.434476   11.362509   29.182294      10.0000    195.0840
  171   1 Pt  78      11.245968   11.362509   29.182294      10.0000    195.0840
  172   1 Pt  78      14.057460   11.362509   29.182294      10.0000    195.0840
  173   1 Pt  78      16.868952   11.362509   29.182294      10.0000    195.0840
  174   1 Pt  78      19.680443   11.362509   29.182294      10.0000    195.0840
  175   1 Pt  78       7.028730   13.797333   29.182294      10.0000    195.0840
  176   1 Pt  78       9.840222   13.797333   29.182294      10.0000    195.0840
  177   1 Pt  78      12.651714   13.797333   29.182294      10.0000    195.0840
  178   1 Pt  78      15.463206   13.797333   29.182294      10.0000    195.0840
  179   1 Pt  78      18.274697   13.797333   29.182294      10.0000    195.0840
  180   1 Pt  78      21.086189   13.797333   29.182294      10.0000    195.0840
  181   1 Pt  78       0.000000    0.000000   31.477868      10.0000    195.0840
  182   1 Pt  78       2.811492    0.000000   31.477868      10.0000    195.0840
  183   1 Pt  78       5.622984    0.000000   31.477868      10.0000    195.0840
  184   1 Pt  78       8.434476    0.000000   31.477868      10.0000    195.0840
  185   1 Pt  78      11.245968    0.000000   31.477868      10.0000    195.0840
  186   1 Pt  78      14.057460    0.000000   31.477868      10.0000    195.0840
  187   1 Pt  78       1.405746    2.434823   31.477868      10.0000    195.0840
  188   1 Pt  78       4.217238    2.434823   31.477868      10.0000    195.0840
  189   1 Pt  78       7.028730    2.434823   31.477868      10.0000    195.0840
  190   1 Pt  78       9.840222    2.434823   31.477868      10.0000    195.0840
  191   1 Pt  78      12.651714    2.434823   31.477868      10.0000    195.0840
  192   1 Pt  78      15.463206    2.434823   31.477868      10.0000    195.0840
  193   1 Pt  78       2.811492    4.869647   31.477868      10.0000    195.0840
  194   1 Pt  78       5.622984    4.869647   31.477868      10.0000    195.0840
  195   1 Pt  78       8.434476    4.869647   31.477868      10.0000    195.0840
  196   1 Pt  78      11.245968    4.869647   31.477868      10.0000    195.0840
  197   1 Pt  78      14.057460    4.869647   31.477868      10.0000    195.0840
  198   1 Pt  78      16.868952    4.869647   31.477868      10.0000    195.0840
  199   1 Pt  78       4.217238    7.304470   31.477868      10.0000    195.0840
  200   1 Pt  78       7.028730    7.304470   31.477868      10.0000    195.0840
  201   1 Pt  78       9.840222    7.304470   31.477868      10.0000    195.0840
  202   1 Pt  78      12.651714    7.304470   31.477868      10.0000    195.0840
  203   1 Pt  78      15.463206    7.304470   31.477868      10.0000    195.0840
  204   1 Pt  78      18.274697    7.304470   31.477868      10.0000    195.0840
  205   1 Pt  78       5.622984    9.739294   31.477868      10.0000    195.0840
  206   1 Pt  78       8.434476    9.739294   31.477868      10.0000    195.0840
  207   1 Pt  78      11.245968    9.739294   31.477868      10.0000    195.0840
  208   1 Pt  78      14.057460    9.739294   31.477868      10.0000    195.0840
  209   1 Pt  78      16.868952    9.739294   31.477868      10.0000    195.0840
  210   1 Pt  78      19.680443    9.739294   31.477868      10.0000    195.0840
  211   1 Pt  78       7.028730   12.174117   31.477868      10.0000    195.0840
  212   1 Pt  78       9.840222   12.174117   31.477868      10.0000    195.0840
  213   1 Pt  78      12.651714   12.174117   31.477868      10.0000    195.0840
  214   1 Pt  78      15.463206   12.174117   31.477868      10.0000    195.0840
  215   1 Pt  78      18.274697   12.174117   31.477868      10.0000    195.0840
  216   1 Pt  78      21.086189   12.174117   31.477868      10.0000    195.0840




 SCF PARAMETERS         Density guess:                                   RESTART
                        --------------------------------------------------------
                        max_scf:                                             500
                        max_scf_history:                                       0
                        max_diis:                                              4
                        --------------------------------------------------------
                        eps_scf:                                        1.00E-06
                        eps_scf_history:                                0.00E+00
                        eps_diis:                                       1.00E-01
                        eps_eigval:                                     1.00E-05
                        --------------------------------------------------------
                        level_shift [a.u.]:                             0.000000
                        added MOs                                       500    0
                        --------------------------------------------------------
                        Mixing method:                            BROYDEN_MIXING
                                                charge density mixing in g-space
                        --------------------------------------------------------
                        Smear method:                                FERMI_DIRAC
                        Electronic temperature [K]:                        300.0
                        Electronic temperature [a.u.]:                  9.50E-04
                        Accuracy threshold:                             1.00E-10
                        --------------------------------------------------------
                        No outer SCF

 PW_GRID| Information for grid number                                          1
 PW_GRID| Grid distributed over                                    32 processors
 PW_GRID| Real space group dimensions                                    32    1
 PW_GRID| the grid is blocked:                                                NO
 PW_GRID| Cutoff [a.u.]                                                    200.0
 PW_GRID| spherical cutoff:                                                   NO
 PW_GRID|   Bounds   1           -105     104                Points:         210
 PW_GRID|   Bounds   2           -105     104                Points:         210
 PW_GRID|   Bounds   3           -315     314                Points:         630
 PW_GRID| Volume element (a.u.^3)  0.3081E-02     Volume (a.u.^3)     85609.9578
 PW_GRID| Grid span                                                    FULLSPACE
 PW_GRID|   Distribution                         Average         Max         Min
 PW_GRID|   G-Vectors                           868218.8      868350      868140
 PW_GRID|   G-Rays                                4134.4        4135        4134
 PW_GRID|   Real Space Points                   868218.8      926100      793800

 PW_GRID| Information for grid number                                          2
 PW_GRID| Number of the reference grid                                         1
 PW_GRID| Grid distributed over                                    32 processors
 PW_GRID| Real space group dimensions                                    32    1
 PW_GRID| the grid is blocked:                                                NO
 PW_GRID| Cutoff [a.u.]                                                     66.7
 PW_GRID| spherical cutoff:                                                   NO
 PW_GRID|   Bounds   1            -60      59                Points:         120
 PW_GRID|   Bounds   2            -60      59                Points:         120
 PW_GRID|   Bounds   3           -180     179                Points:         360
 PW_GRID| Volume element (a.u.^3)  0.1651E-01     Volume (a.u.^3)     85609.9578
 PW_GRID| Grid span                                                    FULLSPACE
 PW_GRID|   Distribution                         Average         Max         Min
 PW_GRID|   G-Vectors                           162000.0      162840      161280
 PW_GRID|   G-Rays                                1350.0        1357        1344
 PW_GRID|   Real Space Points                   162000.0      172800      129600

 PW_GRID| Information for grid number                                          3
 PW_GRID| Number of the reference grid                                         1
 PW_GRID| Grid distributed over                                    32 processors
 PW_GRID| Real space group dimensions                                    32    1
 PW_GRID| the grid is blocked:                                                NO
 PW_GRID| Cutoff [a.u.]                                                     22.2
 PW_GRID| spherical cutoff:                                                   NO
 PW_GRID|   Bounds   1            -35      34                Points:          70
 PW_GRID|   Bounds   2            -35      34                Points:          70
 PW_GRID|   Bounds   3           -105     104                Points:         210
 PW_GRID| Volume element (a.u.^3)  0.8320E-01     Volume (a.u.^3)     85609.9578
 PW_GRID| Grid span                                                    FULLSPACE
 PW_GRID|   Distribution                         Average         Max         Min
 PW_GRID|   G-Vectors                            32156.2       32340       31990
 PW_GRID|   G-Rays                                 459.4         462         457
 PW_GRID|   Real Space Points                    32156.2       44100       29400

 PW_GRID| Information for grid number                                          4
 PW_GRID| Number of the reference grid                                         1
 PW_GRID| Grid distributed over                                    32 processors
 PW_GRID| Real space group dimensions                                    32    1
 PW_GRID| the grid is blocked:                                                NO
 PW_GRID| Cutoff [a.u.]                                                      7.4
 PW_GRID| spherical cutoff:                                                   NO
 PW_GRID|   Bounds   1            -20      19                Points:          40
 PW_GRID|   Bounds   2            -20      19                Points:          40
 PW_GRID|   Bounds   3            -60      59                Points:         120
 PW_GRID| Volume element (a.u.^3)  0.4459         Volume (a.u.^3)     85609.9578
 PW_GRID| Grid span                                                    FULLSPACE
 PW_GRID|   Distribution                         Average         Max         Min
 PW_GRID|   G-Vectors                             6000.0        6120        5920
 PW_GRID|   G-Rays                                 150.0         153         148
 PW_GRID|   Real Space Points                     6000.0        9600        4800

 POISSON| Solver                                          IMPLICIT (GENERALIZED)
 POISSON| Boundary Condition                                PERIODIC & DIRICHLET
 POISSON| Maximum number of iterations                                        30
 POISSON| Convergence threshold                                         1.00E-08
 POISSON| Dielectric Constant                                              80.00
 POISSON| Relaxation parameter                                          1.00E+00

 RS_GRID| Information for grid number                                          1
 RS_GRID|   Bounds   1           -105     104                Points:         210
 RS_GRID|   Bounds   2           -105     104                Points:         210
 RS_GRID|   Bounds   3           -315     314                Points:         630
 RS_GRID| Real space distribution over                                 32 groups
 RS_GRID| Real space distribution along direction                              3
 RS_GRID| Border size                                                         54
 RS_GRID|   Distribution                         Average         Max         Min
 RS_GRID|   Planes                                 127.7         128         127

 RS_GRID| Information for grid number                                          2
 RS_GRID|   Bounds   1            -60      59                Points:         120
 RS_GRID|   Bounds   2            -60      59                Points:         120
 RS_GRID|   Bounds   3           -180     179                Points:         360
 RS_GRID| Real space distribution over                                 32 groups
 RS_GRID| Real space distribution along direction                              3
 RS_GRID| Border size                                                         36
 RS_GRID|   Distribution                         Average         Max         Min
 RS_GRID|   Planes                                  83.2          84          83

 RS_GRID| Information for grid number                                          3
 RS_GRID|   Bounds   1            -35      34                Points:          70
 RS_GRID|   Bounds   2            -35      34                Points:          70
 RS_GRID|   Bounds   3           -105     104                Points:         210
 RS_GRID| Real space fully replicated
 RS_GRID| Group size                                                           1

 RS_GRID| Information for grid number                                          4
 RS_GRID|   Bounds   1            -20      19                Points:          40
 RS_GRID|   Bounds   2            -20      19                Points:          40
 RS_GRID|   Bounds   3            -60      59                Points:         120
 RS_GRID| Real space fully replicated
 RS_GRID| Group size                                                           1

 Number of electrons:                                                       2160
 Number of occupied orbitals:                                               1080
 Number of molecular orbitals:                                              1580

 Number of orbital functions:                                               4320
 Number of independent orbital functions:                                   4320

 Extrapolation method: initial_guess

 *** WARNING in qs_initial_guess.F:310 :: User requested to restart the    ***
 *** wavefunction from the file named: cp2k-RESTART.wfn. This file does    ***
 *** not exist. Please check the existence of the file or change properly  ***
 *** the value of the keyword WFN_RESTART_FILE_NAME. Calculation continues ***
 *** using ATOMIC GUESS.                                                   ***


 Atomic guess: The first density matrix is obtained in terms of atomic orbitals
               and electronic configurations assigned to each atomic kind

 Guess for atomic kind: Pt

 Electronic structure
    Total number of core electrons                                         68.00
    Total number of valence electrons                                      10.00
    Total number of electrons                                              78.00
    Multiplicity                                                   not specified
    S   [  2.00  2.00  2.00  2.00  2.00] 1.00
    P   [  6.00  6.00  6.00  6.00]
    D   [ 10.00 10.00] 9.00
    F   [ 14.00]
 

 *******************************************************************************
                  Iteration          Convergence                     Energy [au]
 *******************************************************************************
                          1         2.31440                     -25.408827593796
                          2         1.51653                     -25.553485547781
                          3        0.756718E-01                 -25.848084769772
                          4        0.846688E-02                 -25.848827784449
                          5        0.789087E-04                 -25.848836001288
                          6        0.389389E-04                 -25.848836001863
                          7        0.125194E-06                 -25.848836002049

 Energy components [Hartree]           Total Energy ::          -25.848836002049
                                        Band Energy ::           -2.040347634070
                                     Kinetic Energy ::           20.020057968093
                                   Potential Energy ::          -45.868893970142
                                      Virial (-V/T) ::            2.291146910925
                                        Core Energy ::          -46.706460602493
                                          XC Energy ::           -4.268953034213
                                     Coulomb Energy ::           25.126577634658
                       Total Pseudopotential Energy ::          -66.819945130261
                       Local Pseudopotential Energy ::          -50.953816608059
                    Nonlocal Pseudopotential Energy ::          -15.866128522202
                                        Confinement ::            0.934265596747

 Orbital energies  State     L     Occupation   Energy[a.u.]          Energy[eV]

                       1     0          1.000      -0.180914           -4.922914
 
                       1     2          9.000      -0.206604           -5.621974
 

 Total Electron Density at R=0:                                         0.000036
 Re-scaling the density matrix to get the right number of electrons
                  # Electrons              Trace(P)               Scaling factor
                         2160              2160.000                        1.000


 SCF WAVEFUNCTION OPTIMIZATION

  Step     Update method      Time    Convergence         Total energy    Change
  ------------------------------------------------------------------------------

  POISSON| IMPLICIT (GENERALIZED) SOLVER ---------------------------------------
  POISSON| Preparing Dirichlet regions ...
  POISSON| Dirichlet region    1
  POISSON|     type : axis-aligned planar
  POISSON|     applied potential :   0.0000E+00  [Eh/e]
  POISSON| Dirichlet region    2
  POISSON|     type : axis-aligned planar
  POISSON|     applied potential :  -0.3675E-01  [Eh/e]
  POISSON| ... Done. 
  ------------------------------------------------------------------------------

  POISSON|   iter        pres error      nabs error        E_hartree    delta E
  POISSON|      1        0.6650E-03      0.3171E-01    1917.3362477829  0.19E+04
  POISSON|      2        0.9921E-15      0.6650E-03    1917.3394113029  0.32E-02
  POISSON| Poisson solver converged in 2 iterations.
     1 NoMix/Diag. 0.30E+00    9.2     0.26091622     -5662.2449744248 -5.66E+03
  POISSON|   iter        pres error      nabs error        E_hartree    delta E
  POISSON|      1        0.9075E-03      0.3236E-01    1940.2122191515  0.23E+02
  POISSON|      2        0.7915E-15      0.9075E-03    1940.2165359270  0.43E-02
  POISSON| Poisson solver converged in 2 iterations.
     2 Broy./Diag. 0.30E+00   11.4     0.41082600     -5836.8569036327 -1.75E+02
  POISSON|   iter        pres error      nabs error        E_hartree    delta E
  POISSON|      1        0.4587E-03      0.1876E-02    1944.0063319514  0.38E+01
  POISSON|      2        0.2473E-16      0.4587E-03    1944.0041498938 -0.22E-02
  POISSON| Poisson solver converged in 2 iterations.
     3 Broy./Diag. 0.30E+00   11.4     0.46041058     -5784.3061923754  5.26E+01
  POISSON|   iter        pres error      nabs error        E_hartree    delta E
  POISSON|      1        0.2908E-03      0.1281E-02    1951.0947309488  0.71E+01
  POISSON|      2        0.1078E-15      0.2908E-03    1951.0961143198  0.14E-02
  POISSON| Poisson solver converged in 2 iterations.
     4 Broy./Diag. 0.30E+00   11.5     0.41384549     -5773.9624566516  1.03E+01
  POISSON|   iter        pres error      nabs error        E_hartree    delta E
  POISSON|      1        0.4868E-05      0.4244E-03    1978.8720110125  0.28E+02
  POISSON|      2        0.8152E-16      0.4868E-05    1978.8719878541 -0.23E-04
  POISSON| Poisson solver converged in 2 iterations.
     5 Broy./Diag. 0.30E+00   11.0     0.06694724     -5743.5816762058  3.04E+01
  POISSON|   iter        pres error      nabs error        E_hartree    delta E
  POISSON|      1        0.4859E-05      0.1949E-03    1987.8373095382  0.90E+01
  POISSON|      2        0.6698E-16      0.4859E-05    1987.8372864258 -0.23E-04
  POISSON| Poisson solver converged in 2 iterations.
     6 Broy./Diag. 0.30E+00   11.4     0.02567404     -5693.5062066365  5.01E+01
  POISSON|   iter        pres error      nabs error        E_hartree    delta E
  POISSON|      1        0.5276E-05      0.1408E-03    1990.6761004333  0.28E+01
  POISSON|      2        0.3877E-16      0.5276E-05    1990.6760753374 -0.25E-04
  POISSON| Poisson solver converged in 2 iterations.
     7 Broy./Diag. 0.30E+00   11.4     0.03296843     -5679.0801447972  1.44E+01
  POISSON|   iter        pres error      nabs error        E_hartree    delta E
  POISSON|      1        0.6632E-05      0.6303E-04    1991.7580913125  0.11E+01
  POISSON|      2        0.6727E-17      0.6632E-05    1991.7581228594  0.32E-04
  POISSON| Poisson solver converged in 2 iterations.
     8 Broy./Diag. 0.30E+00   11.6     0.02269407     -5674.3706493444  4.71E+00
  POISSON|   iter        pres error      nabs error        E_hartree    delta E
  POISSON|      1        0.8596E-06      0.3228E-04    1992.4737352298  0.72E+00
  POISSON|      2        0.1573E-16      0.8596E-06    1992.4737393189  0.41E-05
  POISSON| Poisson solver converged in 2 iterations.
     9 Broy./Diag. 0.30E+00   11.4     0.00739254     -5672.5830203281  1.79E+00
  POISSON|   iter        pres error      nabs error        E_hartree    delta E
  POISSON|      1        0.9729E-06      0.1448E-04    1992.5670722111  0.93E-01
  POISSON|      2        0.1109E-16      0.9729E-06    1992.5670675830 -0.46E-05
  POISSON| Poisson solver converged in 2 iterations.
    10 Broy./Diag. 0.30E+00   11.4     0.01051183     -5672.3162272376  2.67E-01
  POISSON|   iter        pres error      nabs error        E_hartree    delta E
  POISSON|      1        0.2547E-06      0.1438E-04    1992.5989392686  0.32E-01
  POISSON|      2        0.2592E-17      0.2547E-06    1992.5989404800  0.12E-05
  POISSON| Poisson solver converged in 2 iterations.
    11 Broy./Diag. 0.30E+00   11.5     0.00881614     -5672.3007180053  1.55E-02
  POISSON|   iter        pres error      nabs error        E_hartree    delta E
  POISSON|      1        0.6505E-06      0.9341E-05    1992.5942136591 -0.47E-02
  POISSON|      2        0.8076E-17      0.6505E-06    1992.5942167536  0.31E-05
  POISSON| Poisson solver converged in 2 iterations.
    12 Broy./Diag. 0.30E+00   11.6     0.00569666     -5672.4581317228 -1.57E-01
  POISSON|   iter        pres error      nabs error        E_hartree    delta E
  POISSON|      1        0.3513E-06      0.6796E-05    1992.5750660569 -0.19E-01
  POISSON|      2        0.2215E-18      0.3513E-06    1992.5750643860 -0.17E-05
  POISSON| Poisson solver converged in 2 iterations.
    13 Broy./Diag. 0.30E+00   11.6     0.00230576     -5672.6053318788 -1.47E-01
  POISSON|   iter        pres error      nabs error        E_hartree    delta E
  POISSON|      1        0.7433E-06      0.4764E-05    1992.5542677987 -0.21E-01
  POISSON|      2        0.1269E-16      0.7433E-06    1992.5542713344  0.35E-05
  POISSON| Poisson solver converged in 2 iterations.
    14 Broy./Diag. 0.30E+00   11.5     0.00240866     -5672.5632781202  4.21E-02
  POISSON|   iter        pres error      nabs error        E_hartree    delta E
  POISSON|      1        0.4228E-06      0.3383E-05    1992.5081073377 -0.46E-01
  POISSON|      2        0.3669E-17      0.4228E-06    1992.5081093490  0.20E-05
  POISSON| Poisson solver converged in 2 iterations.
    15 Broy./Diag. 0.30E+00   11.4     0.00108857     -5672.6486442192 -8.54E-02
  POISSON|   iter        pres error      nabs error        E_hartree    delta E
  POISSON|      1        0.2094E-06      0.1563E-05    1992.5314150083  0.23E-01
  POISSON|      2        0.5169E-17      0.2094E-06    1992.5314140124 -0.10E-05
  POISSON| Poisson solver converged in 2 iterations.
    16 Broy./Diag. 0.30E+00   11.7     0.00080821     -5672.6661778575 -1.75E-02
  POISSON|   iter        pres error      nabs error        E_hartree    delta E
  POISSON|      1        0.3337E-06      0.1374E-05    1992.5433798705  0.12E-01
  POISSON|      2        0.3815E-18      0.3337E-06    1992.5433814580  0.16E-05
  POISSON| Poisson solver converged in 2 iterations.
    17 Broy./Diag. 0.30E+00   11.6     0.00026791     -5672.6075074537  5.87E-02
  POISSON|   iter        pres error      nabs error        E_hartree    delta E
  POISSON|      1        0.5116E-07      0.8663E-06    1992.5549057638  0.12E-01
  POISSON|      2        0.3667E-17      0.5116E-07    1992.5549060072  0.24E-06
  POISSON| Poisson solver converged in 2 iterations.
    18 Broy./Diag. 0.30E+00   11.5     0.00032425     -5672.5760129143  3.15E-02
  POISSON|   iter        pres error      nabs error        E_hartree    delta E
  POISSON|      1        0.1016E-06      0.4980E-06    1992.5591352222  0.42E-02
  POISSON|      2        0.1832E-17      0.1016E-06    1992.5591357055  0.48E-06
  POISSON| Poisson solver converged in 2 iterations.
    19 Broy./Diag. 0.30E+00   11.6     0.00023191     -5672.5617993169  1.42E-02
  POISSON|   iter        pres error      nabs error        E_hartree    delta E
  POISSON|      1        0.1449E-06      0.5295E-06    1992.5599343986  0.80E-03
  POISSON|      2        0.5718E-17      0.1449E-06    1992.5599350879  0.69E-06
  POISSON| Poisson solver converged in 2 iterations.
    20 Broy./Diag. 0.30E+00   11.7     0.00015681     -5672.5572060184  4.59E-03
  POISSON|   iter        pres error      nabs error        E_hartree    delta E
  POISSON|      1        0.1765E-06      0.6636E-06    1992.5561318583 -0.38E-02
  POISSON|      2        0.1014E-17      0.1765E-06    1992.5561326980  0.84E-06
  POISSON| Poisson solver converged in 2 iterations.
    21 Broy./Diag. 0.30E+00   11.6     0.00003892     -5672.5622031322 -5.00E-03
  POISSON|   iter        pres error      nabs error        E_hartree    delta E
  POISSON|      1        0.1718E-06      0.6204E-06    1992.5539664639 -0.22E-02
  POISSON|      2        0.8935E-17      0.1718E-06    1992.5539672810  0.82E-06
  POISSON| Poisson solver converged in 2 iterations.
    22 Broy./Diag. 0.30E+00   11.5     0.00005055     -5672.5738341538 -1.16E-02
  POISSON|   iter        pres error      nabs error        E_hartree    delta E
  POISSON|      1        0.8108E-07      0.3031E-06    1992.5535795750 -0.39E-03
  POISSON|      2        0.2905E-17      0.8108E-07    1992.5535799607  0.39E-06
  POISSON| Poisson solver converged in 2 iterations.
    23 Broy./Diag. 0.30E+00   11.6     0.00004819     -5672.5792302618 -5.40E-03
  POISSON|   iter        pres error      nabs error        E_hartree    delta E
  POISSON|      1        0.1917E-06      0.7198E-06    1992.5539344161  0.35E-03
  POISSON|      2        0.2248E-17      0.1917E-06    1992.5539353280  0.91E-06
  POISSON| Poisson solver converged in 2 iterations.
    24 Broy./Diag. 0.30E+00   11.6     0.00002951     -5672.5799629996 -7.33E-04
  POISSON|   iter        pres error      nabs error        E_hartree    delta E
  POISSON|      1        0.1129E-06      0.4283E-06    1992.5545572106  0.62E-03
  POISSON|      2        0.7650E-18      0.1129E-06    1992.5545577477  0.54E-06
  POISSON| Poisson solver converged in 2 iterations.
    25 Broy./Diag. 0.30E+00   11.6     0.00002617     -5672.5794895118  4.73E-04
  POISSON|   iter        pres error      nabs error        E_hartree    delta E
  POISSON|      1        0.7549E-07      0.2949E-06    1992.5550917941  0.53E-03
  POISSON|      2        0.2698E-17      0.7549E-07    1992.5550921532  0.36E-06
  POISSON| Poisson solver converged in 2 iterations.
    26 Broy./Diag. 0.30E+00   11.5     0.00001683     -5672.5782517774  1.24E-03
  POISSON|   iter        pres error      nabs error        E_hartree    delta E
  POISSON|      1        0.8222E-07      0.3053E-06    1992.5552596579  0.17E-03
  POISSON|      2        0.1457E-17      0.8222E-07    1992.5552600490  0.39E-06
  POISSON| Poisson solver converged in 2 iterations.
    27 Broy./Diag. 0.30E+00   11.7     0.00002139     -5672.5773262814  9.25E-04
  POISSON|   iter        pres error      nabs error        E_hartree    delta E
  POISSON|      1        0.4115E-07      0.1876E-06    1992.5554854347  0.23E-03
  POISSON|      2        0.3604E-17      0.4115E-07    1992.5554856304  0.20E-06
  POISSON| Poisson solver converged in 2 iterations.
    28 Broy./Diag. 0.30E+00   11.6     0.00003305     -5672.5771014734  2.25E-04
  POISSON|   iter        pres error      nabs error        E_hartree    delta E
  POISSON|      1        0.1160E-06      0.4735E-06    1992.5556944140  0.21E-03
  POISSON|      2        0.8070E-17      0.1160E-06    1992.5556949657  0.55E-06
  POISSON| Poisson solver converged in 2 iterations.
    29 Broy./Diag. 0.30E+00   11.5     0.00002228     -5672.5766198544  4.82E-04
  POISSON|   iter        pres error      nabs error        E_hartree    delta E
  POISSON|      1        0.8018E-07      0.3294E-06    1992.5555725159 -0.12E-03
  POISSON|      2        0.6527E-17      0.8018E-07    1992.5555728973  0.38E-06
  POISSON| Poisson solver converged in 2 iterations.
    30 Broy./Diag. 0.30E+00   11.6     0.00001077     -5672.5761857511  4.34E-04
  POISSON|   iter        pres error      nabs error        E_hartree    delta E
  POISSON|      1        0.1017E-06      0.4610E-06    1992.5551066842 -0.47E-03
  POISSON|      2        0.4418E-18      0.1017E-06    1992.5551071678  0.48E-06
  POISSON| Poisson solver converged in 2 iterations.
    31 Broy./Diag. 0.30E+00   11.6     0.00000712     -5672.5768504674 -6.65E-04
  POISSON|   iter        pres error      nabs error        E_hartree    delta E
  POISSON|      1        0.3032E-07      0.1430E-06    1992.5548844004 -0.22E-03
  POISSON|      2        0.2862E-17      0.3032E-07    1992.5548845446  0.14E-06
  POISSON| Poisson solver converged in 2 iterations.
    32 Broy./Diag. 0.30E+00   11.5     0.00000948     -5672.5769582907 -1.08E-04
  POISSON|   iter        pres error      nabs error        E_hartree    delta E
  POISSON|      1        0.2718E-07      0.1345E-06    1992.5547291501 -0.16E-03
  POISSON|      2        0.1348E-17      0.2718E-07    1992.5547292794  0.13E-06
  POISSON| Poisson solver converged in 2 iterations.
    33 Broy./Diag. 0.30E+00   11.6     0.00001383     -5672.5772659891 -3.08E-04
  POISSON|   iter        pres error      nabs error        E_hartree    delta E
  POISSON|      1        0.2528E-07      0.1335E-06    1992.5545250948 -0.20E-03
  POISSON|      2        0.4786E-17      0.2528E-07    1992.5545252151  0.12E-06
  POISSON| Poisson solver converged in 2 iterations.
    34 Broy./Diag. 0.30E+00   11.7     0.00000778     -5672.5772387839  2.72E-05
  POISSON|   iter        pres error      nabs error        E_hartree    delta E
  POISSON|      1        0.2865E-07      0.1593E-06    1992.5543417961 -0.18E-03
  POISSON|      2        0.7413E-17      0.2865E-07    1992.5543419324  0.14E-06
  POISSON| Poisson solver converged in 2 iterations.
    35 Broy./Diag. 0.30E+00   11.5     0.00000704     -5672.5772945390 -5.58E-05
  POISSON|   iter        pres error      nabs error        E_hartree    delta E
  POISSON|      1        0.2743E-07      0.1459E-06    1992.5542912242 -0.51E-04
  POISSON|      2        0.1837E-17      0.2743E-07    1992.5542913547  0.13E-06
  POISSON| Poisson solver converged in 2 iterations.
    36 Broy./Diag. 0.30E+00   11.6     0.00000640     -5672.5770798452  2.15E-04
  POISSON|   iter        pres error      nabs error        E_hartree    delta E
  POISSON|      1        0.1538E-07      0.9419E-07    1992.5543582585  0.67E-04
  POISSON|      2        0.3724E-17      0.1538E-07    1992.5543583317  0.73E-07
  POISSON| Poisson solver converged in 2 iterations.
    37 Broy./Diag. 0.30E+00   11.6     0.00000529     -5672.5765732532  5.07E-04
  POISSON|   iter        pres error      nabs error        E_hartree    delta E
  POISSON|      1        0.1731E-07      0.9073E-07    1992.5542509617 -0.11E-03
  POISSON|      2        0.3661E-17      0.1731E-07    1992.5542510441  0.82E-07
  POISSON| Poisson solver converged in 2 iterations.
    38 Broy./Diag. 0.30E+00   11.4     0.00000720     -5672.5762754833  2.98E-04
  POISSON|   iter        pres error      nabs error        E_hartree    delta E
  POISSON|      1        0.1327E-07      0.6962E-07    1992.5542528094  0.18E-05
  POISSON|      2        0.1411E-17      0.1327E-07    1992.5542528725  0.63E-07
  POISSON| Poisson solver converged in 2 iterations.
    39 Broy./Diag. 0.30E+00   11.6     0.00000547     -5672.5761365644  1.39E-04
  POISSON|   iter        pres error      nabs error        E_hartree    delta E
  POISSON|      1        0.7469E-09      0.1417E-07    1992.5543016785  0.49E-04
  POISSON| Poisson solver converged in 1 iteration. 
    40 Broy./Diag. 0.30E+00   10.6     0.00000287     -5672.5759781085  1.58E-04
  POISSON|   iter        pres error      nabs error        E_hartree    delta E
  POISSON|      1        0.7181E-08      0.3620E-07    1992.5542612035 -0.40E-04
  POISSON| Poisson solver converged in 1 iteration. 
    41 Broy./Diag. 0.30E+00   10.6     0.00000168     -5672.5759256475  5.25E-05
  POISSON|   iter        pres error      nabs error        E_hartree    delta E
  POISSON|      1        0.6657E-08      0.3635E-07    1992.5542360410 -0.25E-04
  POISSON| Poisson solver converged in 1 iteration. 
    42 Broy./Diag. 0.30E+00   10.4     0.00000259     -5672.5759734186 -4.78E-05
  POISSON|   iter        pres error      nabs error        E_hartree    delta E
  POISSON|      1        0.4134E-08      0.2195E-07    1992.5542137815 -0.22E-04
  POISSON| Poisson solver converged in 1 iteration. 
    43 Broy./Diag. 0.30E+00   10.7     0.00000210     -5672.5760039539 -3.05E-05
  POISSON|   iter        pres error      nabs error        E_hartree    delta E
  POISSON|      1        0.2986E-08      0.1299E-07    1992.5541946089 -0.19E-04
  POISSON| Poisson solver converged in 1 iteration. 
    44 Broy./Diag. 0.30E+00   10.7     0.00000186     -5672.5760405355 -3.66E-05
  POISSON|   iter        pres error      nabs error        E_hartree    delta E
  POISSON|      1        0.1626E-08      0.8340E-08    1992.5541850777 -0.95E-05
  POISSON| Poisson solver converged in 1 iteration. 
    45 Broy./Diag. 0.30E+00   10.7     0.00000123     -5672.5760630061 -2.25E-05
  POISSON|   iter        pres error      nabs error        E_hartree    delta E
  POISSON|      1        0.3062E-08      0.1441E-07    1992.5541779471 -0.71E-05
  POISSON| Poisson solver converged in 1 iteration. 
    46 Broy./Diag. 0.30E+00   10.6     0.00000154     -5672.5760796953 -1.67E-05
  POISSON|   iter        pres error      nabs error        E_hartree    delta E
  POISSON|      1        0.2040E-08      0.9642E-08    1992.5541873404  0.94E-05
  POISSON| Poisson solver converged in 1 iteration. 
    47 Broy./Diag. 0.30E+00   10.5     0.00000110     -5672.5760584134  2.13E-05
  POISSON|   iter        pres error      nabs error        E_hartree    delta E
  POISSON|      1        0.1145E-09      0.3803E-08    1992.5541907905  0.35E-05
  POISSON| Poisson solver converged in 1 iteration. 
    48 Broy./Diag. 0.30E+00   10.5     0.00000107     -5672.5760447954  1.36E-05
  POISSON|   iter        pres error      nabs error        E_hartree    delta E
  POISSON|      1        0.3204E-08      0.1604E-07    1992.5542108334  0.20E-04
  POISSON| Poisson solver converged in 1 iteration. 
    49 Broy./Diag. 0.30E+00   10.7     0.00000083     -5672.5760043084  4.05E-05

  *** SCF run converged in    49 steps ***


  Electronic density on regular grids:      -2159.9999999992        0.0000000008
  Core density on regular grids:             2159.9999999995       -0.0000000005
  Total charge density on r-space grids:        0.0000000003
  Total charge density g-space grids:           0.0000000003

  Overlap energy of the core charge distribution:               0.00002390529568
  Self energy of the core charge distribution:              -9891.63555570741482
  Core Hamiltonian energy:                                   3203.16728798282929
  Hartree energy:                                            1992.55421083336432
  Electric enthalpy:                                         1992.54722126106208
  Exchange-correlation energy:                               -971.86934923450804
  Dispersion energy:                                           -4.74800350157800
  Electronic entropic energy:                                  -0.03762894252180
  Fermi energy:                                                -0.19018008928523

  Total energy:                                             -5672.57600430844650

 The electron density is written in cube file format to the file:

 cp2k-ELECTRON_DENSITY-1_0.cube

 !-----------------------------------------------------------------------------!
                     Mulliken Population Analysis

 #  Atom  Element  Kind  Atomic population                           Net charge
       1     Pt       1         10.054864                             -0.054864
       2     Pt       1         10.054860                             -0.054860
       3     Pt       1         10.054861                             -0.054861
       4     Pt       1         10.054862                             -0.054862
       5     Pt       1         10.054859                             -0.054859
       6     Pt       1         10.054864                             -0.054864
       7     Pt       1         10.054873                             -0.054873
       8     Pt       1         10.054869                             -0.054869
       9     Pt       1         10.054871                             -0.054871
      10     Pt       1         10.054871                             -0.054871
      11     Pt       1         10.054868                             -0.054868
      12     Pt       1         10.054874                             -0.054874
      13     Pt       1         10.054873                             -0.054873
      14     Pt       1         10.054869                             -0.054869
      15     Pt       1         10.054871                             -0.054871
      16     Pt       1         10.054871                             -0.054871
      17     Pt       1         10.054869                             -0.054869
[...]
    188      1      Pt         -0.00000011     0.00000037     0.00454208
    189      1      Pt         -0.00000002     0.00000080     0.00454195
    190      1      Pt          0.00000076     0.00000103     0.00454162
    191      1      Pt         -0.00000014     0.00000019     0.00454175
    192      1      Pt          0.00000422    -0.00000078     0.00453935
    193      1      Pt         -0.00000418     0.00000073     0.00454063
    194      1      Pt         -0.00000013    -0.00000016     0.00454183
    195      1      Pt         -0.00000002     0.00000025     0.00454161
    196      1      Pt         -0.00000033    -0.00000065     0.00454134
    197      1      Pt         -0.00000028    -0.00000040     0.00454152
    198      1      Pt          0.00000417    -0.00000136     0.00453912
    199      1      Pt         -0.00000359     0.00000133     0.00454097
    200      1      Pt          0.00000048     0.00000041     0.00454206
    201      1      Pt         -0.00000051    -0.00000030     0.00454191
    202      1      Pt          0.00000014    -0.00000012     0.00454170
    203      1      Pt          0.00000029     0.00000014     0.00454186
    204      1      Pt          0.00000375    -0.00000187     0.00453951
    205      1      Pt         -0.00000319     0.00000233     0.00454063
    206      1      Pt         -0.00000022     0.00000029     0.00454180
    207      1      Pt         -0.00000024     0.00000066     0.00454169
    208      1      Pt          0.00000050     0.00000086     0.00454148
    209      1      Pt         -0.00000034     0.00000006     0.00454169
    210      1      Pt          0.00000413    -0.00000085     0.00453927
    211      1      Pt         -0.00000333    -0.00000264     0.00454128
    212      1      Pt          0.00000060    -0.00000360     0.00454250
    213      1      Pt          0.00000067    -0.00000321     0.00454240
    214      1      Pt          0.00000043    -0.00000407     0.00454222
    215      1      Pt          0.00000060    -0.00000376     0.00454237
    216      1      Pt          0.00000508    -0.00000469     0.00453986
 SUM OF ATOMIC FORCES           0.00000198    -0.00000117     0.00003953     0.00003960

 -------------------------------------------------------------------------------
 -                                                                             -
 -                                DBCSR STATISTICS                             -
 -                                                                             -
 -------------------------------------------------------------------------------
 COUNTER                                    TOTAL       BLAS       SMM       ACC
 flops    20 x    20 x   204         191237760000       0.0%    100.0%      0.0%
 flops    20 x    20 x   224         209986560000       0.0%    100.0%      0.0%
 flops    20 x    20 x   192        1079930880000       0.0%    100.0%      0.0%
 flops inhomo. stacks                           0       0.0%      0.0%      0.0%
 flops total                         1.481155E+12       0.0%    100.0%      0.0%
 flops max/rank                     47.526400E+09       0.0%    100.0%      0.0%
 matmuls inhomo. stacks                         0       0.0%      0.0%      0.0%
 matmuls total                            9374400       0.0%    100.0%      0.0%
 number of processed stacks                 12800       0.0%    100.0%      0.0%
 average stack size                                     0.0     732.4       0.0
 marketing flops                     2.131135E+12
 -------------------------------------------------------------------------------
 # multiplications                             50
 max memory usage/rank               1.786941E+09
 # max total images/rank                        2
 # max 3D layers                                1
 # MPI messages exchanged                   20800
 MPI messages size (bytes):
  total size                        27.302400E+09
  min size                         829.440000E+03
  max size                           1.935360E+06
  average size                       1.312615E+06
 MPI breakdown and total messages size (bytes):
             size <=      128                   0                        0
       128 < size <=     8192                   0                        0
      8192 < size <=    32768                   0                        0
     32768 < size <=   131072                   0                        0
    131072 < size <=  4194304               20800              27302400000
   4194304 < size <= 16777216                   0                        0
  16777216 < size                               0                        0
 -------------------------------------------------------------------------------

 *** WARNING in dbcsr_mm.F:290 :: Using a non-square number of MPI ranks ***
 *** might lead to poor performance. Used ranks: 32 Suggested: 36 64     ***

 -------------------------------------------------------------------------------
 -                                                                             -
 -                      DBCSR MESSAGE PASSING PERFORMANCE                      -
 -                                                                             -
 -------------------------------------------------------------------------------
 ROUTINE             CALLS      AVE VOLUME [Bytes]
 MP_Bcast                4                     12.
 MP_Allreduce          376                      9.
 MP_Alltoall          1400                1286330.
 MP_ISend             1600                 567540.
 MP_IRecv             1600                 550260.
 -------------------------------------------------------------------------------

 -------------------------------------------------------------------------------
 -                                                                             -
 -                                DBM STATISTICS                               -
 -                                                                             -
 -------------------------------------------------------------------------------
    M  x    N  x    K                                          COUNT     PERCENT
 -------------------------------------------------------------------------------

 -------------------------------------------------------------------------------
 -                                                                             -
 -                                GRID STATISTICS                              -
 -                                                                             -
 -------------------------------------------------------------------------------
 LP    KERNEL             BACKEND                              COUNT     PERCENT
 4     collocate general  REF                               17317800      49.96%
 4     integrate general  REF                               16971444      48.96%
 5     integrate general  REF                                 346356       1.00%
 0     collocate general  REF                                  13824       0.04%
 0     integrate general  REF                                   6912       0.02%
 1     integrate general  REF                                   6912       0.02%
 -------------------------------------------------------------------------------

 MEMORY| Estimated peak process memory [MiB]                                2103

 -------------------------------------------------------------------------------
 ----                             MULTIGRID INFO                            ----
 -------------------------------------------------------------------------------
 count for grid        1:          18036          cutoff [a.u.]          200.00
 count for grid        2:         178044          cutoff [a.u.]           66.67
 count for grid        3:         113556          cutoff [a.u.]           22.22
 count for grid        4:         156948          cutoff [a.u.]            7.41
 total gridlevel count  :         466584

 -------------------------------------------------------------------------------
 -                                                                             -
 -                         MESSAGE PASSING PERFORMANCE                         -
 -                                                                             -
 -------------------------------------------------------------------------------

 ROUTINE             CALLS      AVE VOLUME [Bytes]
 MP_Group                4
 MP_Bcast              151                1579646.
 MP_Allreduce         1453                   1734.
 MP_Sync                53
 MP_Alltoall          2619               49840678.
 MP_SendRecv           124                  14994.
 MP_ISendRecv         6200                 214800.
 MP_Wait             15068
 MP_ISend             7952                 717041.
 MP_IRecv             7952                 717041.
 MP_Recv               144                1105920.
 MP_Write_All            3                4213860.
 -------------------------------------------------------------------------------


 -------------------------------------------------------------------------------
 -                                                                             -
 -                           R E F E R E N C E S                               -
 -                                                                             -
 -------------------------------------------------------------------------------
 
 CP2K version 2022.1, the CP2K developers group (2022).
 CP2K is freely available from https://www.cp2k.org/ .

 Kuehne,Thomas D.; Iannuzzi,Marcella; Del Ben,Mauro;
 Rybkin,Vladimir V.; Seewald,Patrick; Stein,Frederick; Laino,Teodoro;
 Khaliullin,Rustam Z.; Schuett,Ole; Schiffmann,Florian; Golze,Dorothea;
 Wilhelm,Jan; Chulkov,Sergey; Bani-Hashemian,Mohammad Hossein;
 Weber,Valery; Borstnik,Urban; Taillefumier,Mathieu;
 Jakobovits,Alice Shoshana; Lazzaro,Alfio; Pabst,Hans; Mueller,Tiziano;
 Schade,Robert; Guidon,Manuel; Andermatt,Samuel; Holmberg,Nico;
 Schenter,Gregory K.; Hehn,Anna; Bussy,Augustin; Belleflamme,Fabian;
 Tabacchi,Gloria; Gloess,Andreas; Lass,Michael; Bethune,Iain;
 Mundy,Christopher J.; Plessl,Christian; Watkins,Matt;
 VandeVondele,Joost; Krack,Matthias; Hutter,Juerg. 
 The Journal of Chemical Physics, 152 (19), (2020). 
 CP2K: An electronic structure and molecular dynamics software package -
 Quickstep: Efficient and accurate electronic structure calculations.
 https://doi.org/10.1063/5.0007045

 Goerigk, Lars; Hansen, Andreas; Bauer, Christoph; Ehrlich, Stephan;
 Najibi, Asim; Grimme, Stefan. , 19 (48), (2017). 
 A look at the density functional theory zoo with the advanced GMTKN55 database
 for general main group thermochemistry, kinetics and noncovalent interactions.
 https://doi.org/10.1039/C7CP04913G

 Bani-Hashemian, MH; Bruck, S; Luisier, M; VandeVondele, J. 
 JOURNAL OF CHEMICAL PHYSICS, 144 (4), 044113 (2016). 
 A generalized Poisson solver for first-principles device simulations.
 https://doi.org/10.1063/1.4940796

 Schuett, Ole; Messmer, Peter; Hutter, Juerg; VandeVondele, Joost. 
 Electronic Structure Calculations on Graphics Processing Units, John
 Wiley & Sons, Ltd, 173-190 (2016). 
 GPU-Accelerated Sparse Matrix-Matrix Multiplication for
 Linear Scaling Density Functional Theory.
 https://doi.org/10.1002/9781118670712.ch8

 Heinecke, A; Henry, G; Hutchinson, M; Pabst, H. 
 Proceedings of Intl. Supercomputing Conference, 981-991 (2016). 
 LIBXSMM: Accelerating Small Matrix Multiplications
 by Runtime Code Generation.
 https://doi.org/10.1109/SC.2016.83

 Borstnik, U; VandeVondele, J; Weber, V; Hutter, J. 
 PARALLEL COMPUTING, 40 (5-6), 47-58 (2014). 
 Sparse matrix multiplication: The distributed block-compressed sparse
 row library.
 https://doi.org/10.1016/j.parco.2014.03.012

 Hutter, J; Iannuzzi, M; Schiffmann, F; VandeVondele, J. 
 WIREs Comput Mol Sci., 4 (1), 15-25 (2014). 
 CP2K: atomistic simulations of condensed matter systems.
 https://doi.org/10.1002/wcms.1159

 Marek, A; Blum, V; Johanni, R; Havu, V; Lang, B; Auckenthaler, T;
 Heinecke, A; Bungartz, H; Lederer, H. 
 Journal of Physics: Condensed Matter, 26 (21), (2014). 
 The ELPA library: scalable parallel eigenvalue solutions for
 electronic structure
 theory and computational science.
 https://doi.org/10.1088/0953-8984/26/21/213201

 Grimme, S; Ehrlich, S; Goerigk, L. 
 JOURNAL OF COMPUTATIONAL CHEMISTRY, 32, 1456 (2011). 
 Effect of the damping function in dispersion corrected density functional theory.
 https://doi.org/10.1002/jcc.21759

 Grimme, S; Antony, J; Ehrlich, S; Krieg, H. 
 JOURNAL OF CHEMICAL PHYSICS, 132 (15), 154104 (2010). 
 A consistent and accurate ab initio parametrization of density
 functional dispersion correction (DFT-D) for the 94 elements H-Pu.
 https://doi.org/10.1063/1.3382344

 VandeVondele, J; Hutter, J. 
 JOURNAL OF CHEMICAL PHYSICS, 127 (11), 114105 (2007). 
 Gaussian basis sets for accurate calculations on molecular systems in
 gas and condensed phases.
 https://doi.org/10.1063/1.2770708

 Krack, M. 
 THEORETICAL CHEMISTRY ACCOUNTS, 114 (1-3), 145-152 (2005). 
 Pseudopotentials for H to Kr optimized for gradient-corrected
 exchange-correlation functionals.
 https://doi.org/10.1007/s00214-005-0655-y

 VandeVondele, J; Krack, M; Mohamed, F; Parrinello, M; Chassaing, T;
 Hutter, J. COMPUTER PHYSICS COMMUNICATIONS, 167 (2), 103-128 (2005). 
 QUICKSTEP: Fast and accurate density functional calculations using a
 mixed Gaussian and plane waves approach.
 https://doi.org/10.1016/j.cpc.2004.12.014

 Frigo, M; Johnson, SG. 
 PROCEEDINGS OF THE IEEE, 93 (2), 216-231 (2005). 
 The design and implementation of FFTW3.
 https://doi.org/10.1109/JPROC.2004.840301

 Hartwigsen, C; Goedecker, S; Hutter, J. 
 PHYSICAL REVIEW B, 58 (7), 3641-3662 (1998). 
 Relativistic separable dual-space Gaussian pseudopotentials from H to Rn.
 https://doi.org/10.1103/PhysRevB.58.3641

 Lippert, G; Hutter, J; Parrinello, M. 
 MOLECULAR PHYSICS, 92 (3), 477-487 (1997). 
 A hybrid Gaussian and plane wave density functional scheme.
 https://doi.org/10.1080/002689797170220

 Perdew, JP; Burke, K; Ernzerhof, M. 
 PHYSICAL REVIEW LETTERS, 77 (18), 3865-3868 (1996). 
 Generalized gradient approximation made simple.
 https://doi.org/10.1103/PhysRevLett.77.3865

 Goedecker, S; Teter, M; Hutter, J. 
 PHYSICAL REVIEW B, 54 (3), 1703-1710 (1996). 
 Separable dual-space Gaussian pseudopotentials.
 https://doi.org/10.1103/PhysRevB.54.1703


 -------------------------------------------------------------------------------
 -                                                                             -
 -                                T I M I N G                                  -
 -                                                                             -
 -------------------------------------------------------------------------------
 SUBROUTINE                       CALLS  ASD         SELF TIME        TOTAL TIME
                                MAXIMUM       AVERAGE  MAXIMUM  AVERAGE  MAXIMUM
 CP2K                                 1  1.0    0.014    0.024  576.999  577.000
 qs_forces                            1  2.0    0.001    0.001  576.642  576.644
 qs_energies                          1  3.0    0.000    0.000  563.892  563.896
 scf_env_do_scf                       1  4.0    0.000    0.001  556.337  556.420
 scf_env_do_scf_inner_loop           49  5.0    0.002    0.005  556.337  556.420
 rebuild_ks_matrix                   50  6.9    0.000    0.000  347.925  347.982
 qs_ks_build_kohn_sham_matrix        50  7.9    0.006    0.007  347.925  347.982
 qs_ks_update_qs_env                 49  6.0    0.000    0.000  339.821  339.877
 pw_transfer                       2504 12.2    0.152    0.211  177.798  178.853
 fft_wrap_pw1pw2                   2504 13.2    0.020    0.025  177.645  178.679
 fft_wrap_pw1pw2_200               2204 14.4   14.623   15.638  175.873  176.882
 pw_poisson_solve                    50  8.9    0.012    0.016  157.748  157.771
 qs_rho_update_rho_low               50  6.0    0.000    0.000  149.127  149.146
 calculate_rho_elec                  50  7.0    0.273    0.303  149.127  149.146
 implicit_poisson_solver_mixed_      50  9.9    4.356    4.710  149.070  149.115
 sum_up_and_integrate                50  8.9    0.576    0.620  140.653  140.717
 integrate_v_rspace                  50  9.9    0.001    0.002  140.077  140.185
 fft3d_ps                          2504 15.2   78.031   84.543  132.999  134.277
 grid_collocate_task_list            50  8.0   67.259  133.455   67.259  133.455
 grid_integrate_task_list            50 10.9   62.589  124.695   62.589  124.695
 derive_fft                         280 12.1    0.013    0.015  104.463  105.181
 rs_pw_transfer                     404 10.4    0.004    0.005   82.274  103.813
 density_rs2pw                       50  8.0    0.003    0.003   80.708  102.046
 mp_waitany                        7952 12.4   70.860   92.576   70.860   92.576
 rs_pw_transfer_RS2PW_200            52  9.9    2.549    3.008   70.262   91.859
 apply_P_operator                   230 11.2    1.840    1.968   87.752   88.296
 mp_alltoall_d11v                   701 10.2   63.385   83.452   63.385   83.452
 rs_gather_matrices                  50 10.9    0.130    0.151   62.522   82.623
 qs_scf_new_mos                      49  6.0    0.001    0.003   54.137   54.287
 eigensolver                         49  7.0    0.004    0.006   48.897   48.942
 qs_vxc_create                       50  8.9    0.001    0.001   44.873   45.264
 xc_vxc_pw_create                    50  9.9    0.930    1.076   44.872   45.263
 mp_alltoall_z22v                  2504 17.2   28.592   40.159   28.592   40.159
 x_to_yz                           1581 16.3   19.917   22.378   36.509   39.210
 cp_fm_diag_elpa                     49  8.0    0.000    0.000   31.614   31.707
 cp_fm_diag_elpa_base                49  9.0   31.034   31.099   31.548   31.567
 xc_pw_derive                       300 11.9    0.003    0.004   28.924   30.453
 apply_poisson_operator_fft          50 10.9    0.001    0.001   27.701   27.837
 xc_rho_set_and_dset_create          50 10.9    0.406    0.483   24.527   25.190
 yz_to_x                            923 15.9    6.416    6.731   18.416   24.622
 apply_inv_laplace_operator_fft     142 11.6    0.711    0.750   23.025   23.402
 xc_pw_divergence                    50 10.9    0.002    0.002   18.845   19.890
 pw_scatter_p                      1581 15.3   18.197   19.379   18.197   19.379
 ps_implicit_compute_veps            50 10.9    0.495    0.557   19.050   19.363
 ps_implicit_compute_error_fft       90 10.9    1.416    1.508   16.685   17.491
 cp_fm_triangular_multiply          147  8.0   16.738   16.877   16.738   16.877
 gspace_mixing                       48  6.0    0.262    0.280   15.885   15.886
 pw_derive                         1140 13.1   14.660   15.212   14.660   15.212
 potential_pw2rs                     50 10.9    0.038    0.042   14.956   15.017
 pw_gather_p                        923 14.9   11.649   11.857   11.649   11.857
 broyden_mixing                      48  7.0   11.152   11.357   11.505   11.548
 -------------------------------------------------------------------------------

 The number of warnings for this run is : 2
 
 -------------------------------------------------------------------------------
  **** **** ******  **  PROGRAM ENDED AT                 2023-12-02 19:47:40.316
 ***** ** ***  *** **   PROGRAM RAN ON                                     cu087
 **    ****   ******    PROGRAM RAN BY                                     jxzhu
 ***** **    ** ** **   PROGRAM PROCESS ID                                 47275
  **** **  *******  **  PROGRAM STOPPED IN /public/home/jxzhu/tmp_calc/0a3cf48f3
                                           e4bfd23fd4415c30d90d8b4c0a87311/calc/
                                           ref.000
