 DBCSR| CPU Multiplication driver                                           XSMM
 DBCSR| Multrec recursion limit                                              512
 DBCSR| Multiplication stack size                                           1000
 DBCSR| Maximum elements for images                                    UNLIMITED
 DBCSR| Multiplicative factor virtual images                                   1
 DBCSR| Use multiplication densification                                       T
 DBCSR| Multiplication size stacks                                             3
 DBCSR| Use memory pool for CPU allocation                                     F
 DBCSR| Number of 3D layers                                               SINGLE
 DBCSR| Use MPI memory allocation                                              F
 DBCSR| Use RMA algorithm                                                      F
 DBCSR| Use Communication thread                                               T
 DBCSR| Communication thread load                                             87
 DBCSR| MPI: My node id                                                        0
 DBCSR| MPI: Number of nodes                                                 128
 DBCSR| OMP: Current number of threads                                         1
 DBCSR| OMP: Max number of threads                                             1
 DBCSR| Split modifier for TAS multiplication algorithm                  1.0E+00


  **** **** ******  **  PROGRAM STARTED AT               2023-12-02 04:25:01.920
 ***** ** ***  *** **   PROGRAM STARTED ON                                 cu054
 **    ****   ******    PROGRAM STARTED BY                                 jxzhu
 ***** **    ** ** **   PROGRAM PROCESS ID                                 15535
  **** **  *******  **  PROGRAM STARTED IN /public/home/jxzhu/tmp_calc/62d0d4306
                                           56aad471219d174804c609a3b336b00/calc/
                                           000700.000/search_lo.000000

 CP2K| version string:                                       CP2K version 2022.1
 CP2K| source code revision number:                                  git:2caeb6f
 CP2K| cp2kflags: omp libint fftw3 libxc elpa parallel mpi3 scalapack cosma xsmm
 CP2K|             plumed2 spglib mkl sirius libvori libbqb
 CP2K| is freely available from                            https://www.cp2k.org/
 CP2K| Program compiled at                           Mon Jul 3 17:37:06 CST 2023
 CP2K| Program compiled on                                                 mu003
 CP2K| Program compiled for                                                local
 CP2K| Data directory path                             /public/home/jxzhu/basis/
 CP2K| Input file name                                                 input.inp
 
 GLOBAL| Force Environment number                                              1
 GLOBAL| Basis set file name                                        BASIS_MOLOPT
 GLOBAL| Potential file name                                      GTH_POTENTIALS
 GLOBAL| MM Potential file name                                     MM_POTENTIAL
 GLOBAL| Coordinate file name                                          coord.xyz
 GLOBAL| Method name                                                        CP2K
 GLOBAL| Project name                                                       cp2k
 GLOBAL| Run type                                                   ENERGY_FORCE
 GLOBAL| FFT library                                                       FFTW3
 GLOBAL| Diagonalization library                                            ELPA
 GLOBAL| Minimum number of eigenvectors for ELPA usage                        16
 GLOBAL| Orthonormality check for eigenvectors                          DISABLED
 GLOBAL| Matrix multiplication library                                     COSMA
 GLOBAL| All-to-all communication in single precision                          F
 GLOBAL| FFTs using library dependent lengths                                  T
 GLOBAL| Grid backend                                                       AUTO
 GLOBAL| Global print level                                               MEDIUM
 GLOBAL| MPI I/O enabled                                                       T
 GLOBAL| Total number of message passing processes                           128
 GLOBAL| Number of threads for this process                                    1
 GLOBAL| This output is from process                                           0
 GLOBAL| Stack size for threads created by OpenMP (OMP_STACKSIZE)        default
 GLOBAL| CPU model name                 Intel(R) Xeon(R) Gold 6338 CPU @ 2.00GHz
 GLOBAL| CPUID                                                              1003

 MEMORY| system memory details [Kb]
 MEMORY|                        rank 0           min           max       average
 MEMORY| MemTotal            263619172     263619172     263619172     263619172
 MEMORY| MemFree             212167500     212156640     216352588     214258067
 MEMORY| Buffers                  3320          3320          3320          3320
 MEMORY| Cached                1199652       1041508       1199652       1120580
 MEMORY| Slab                  1478928       1351556       1478928       1415242
 MEMORY| SReclaimable           250484        245340        250484        247912
 MEMORY| MemLikelyFree       213620956     213610096     217642756     215629879


 *** Fundamental physical constants (SI units) ***

 *** Literature: B. J. Mohr and B. N. Taylor,
 ***             CODATA recommended values of the fundamental physical
 ***             constants: 2006, Web Version 5.1
 ***             http://physics.nist.gov/constants

 Speed of light in vacuum [m/s]                             2.99792458000000E+08
 Magnetic constant or permeability of vacuum [N/A**2]       1.25663706143592E-06
 Electric constant or permittivity of vacuum [F/m]          8.85418781762039E-12
 Planck constant (h) [J*s]                                  6.62606896000000E-34
 Planck constant (h-bar) [J*s]                              1.05457162825177E-34
 Elementary charge [C]                                      1.60217648700000E-19
 Electron mass [kg]                                         9.10938215000000E-31
 Electron g factor [ ]                                     -2.00231930436220E+00
 Proton mass [kg]                                           1.67262163700000E-27
 Fine-structure constant                                    7.29735253760000E-03
 Rydberg constant [1/m]                                     1.09737315685270E+07
 Avogadro constant [1/mol]                                  6.02214179000000E+23
 Boltzmann constant [J/K]                                   1.38065040000000E-23
 Atomic mass unit [kg]                                      1.66053878200000E-27
 Bohr radius [m]                                            5.29177208590000E-11

 *** Conversion factors ***

 [u] -> [a.u.]                                              1.82288848426455E+03
 [Angstrom] -> [Bohr] = [a.u.]                              1.88972613288564E+00
 [a.u.] = [Bohr] -> [Angstrom]                              5.29177208590000E-01
 [a.u.] -> [s]                                              2.41888432650478E-17
 [a.u.] -> [fs]                                             2.41888432650478E-02
 [a.u.] -> [J]                                              4.35974393937059E-18
 [a.u.] -> [N]                                              8.23872205491840E-08
 [a.u.] -> [K]                                              3.15774647902944E+05
 [a.u.] -> [kJ/mol]                                         2.62549961709828E+03
 [a.u.] -> [kcal/mol]                                       6.27509468713739E+02
 [a.u.] -> [Pa]                                             2.94210107994716E+13
 [a.u.] -> [bar]                                            2.94210107994716E+08
 [a.u.] -> [atm]                                            2.90362800883016E+08
 [a.u.] -> [eV]                                             2.72113838565563E+01
 [a.u.] -> [Hz]                                             6.57968392072181E+15
 [a.u.] -> [1/cm] (wave numbers)                            2.19474631370540E+05
 [a.u./Bohr**2] -> [1/cm]                                   5.14048714338585E+03
 

 CELL_TOP| Volume [angstrom^3]:                                     17614.982639
 CELL_TOP| Vector a [angstrom    16.869     0.000     0.000   |a| =    16.869000
 CELL_TOP| Vector b [angstrom    -8.434    14.609     0.000   |b| =    16.869015
 CELL_TOP| Vector c [angstrom     0.000     0.000    71.478   |c| =    71.478000
 CELL_TOP| Angle (b,c), alpha [degree]:                                90.000000
 CELL_TOP| Angle (a,c), beta  [degree]:                                90.000000
 CELL_TOP| Angle (a,b), gamma [degree]:                               119.999970
 CELL_TOP| Numerically orthorhombic:                                          NO
 
 GENERATE|  Preliminary Number of Bonds generated:                             0
 GENERATE|  Achieved consistency in connectivity generation.

 CELL| Volume [angstrom^3]:                                         17614.982639
 CELL| Vector a [angstrom]:      16.869     0.000     0.000   |a| =    16.869000
 CELL| Vector b [angstrom]:      -8.434    14.609     0.000   |b| =    16.869015
 CELL| Vector c [angstrom]:       0.000     0.000    71.478   |c| =    71.478000
 CELL| Angle (b,c), alpha [degree]:                                    90.000000
 CELL| Angle (a,c), beta  [degree]:                                    90.000000
 CELL| Angle (a,b), gamma [degree]:                                   119.999970
 CELL| Numerically orthorhombic:                                              NO

 CELL_REF| Volume [angstrom^3]:                                     17614.982639
 CELL_REF| Vector a [angstrom    16.869     0.000     0.000   |a| =    16.869000
 CELL_REF| Vector b [angstrom    -8.434    14.609     0.000   |b| =    16.869015
 CELL_REF| Vector c [angstrom     0.000     0.000    71.478   |c| =    71.478000
 CELL_REF| Angle (b,c), alpha [degree]:                                90.000000
 CELL_REF| Angle (a,c), beta  [degree]:                                90.000000
 CELL_REF| Angle (a,b), gamma [degree]:                               119.999970
 CELL_REF| Numerically orthorhombic:                                          NO

 *******************************************************************************
 *******************************************************************************
 **                                                                           **
 **     #####                         ##              ##                      **
 **    ##   ##            ##          ##              ##                      **
 **   ##     ##                       ##            ######                    **
 **   ##     ##  ##   ##  ##   #####  ##  ##   ####   ##    #####    #####    **
 **   ##     ##  ##   ##  ##  ##      ## ##   ##      ##   ##   ##  ##   ##   **
 **   ##  ## ##  ##   ##  ##  ##      ####     ###    ##   ######   ######    **
 **    ##  ###   ##   ##  ##  ##      ## ##      ##   ##   ##       ##        **
 **     #######   #####   ##   #####  ##  ##  ####    ##    #####   ##        **
 **           ##                                                    ##        **
 **                                                                           **
 **                                                ... make the atoms dance   **
 **                                                                           **
 **            Copyright (C) by CP2K developers group (2000-2022)             **
 **                      J. Chem. Phys. 152, 194103 (2020)                    **
 **                                                                           **
 *******************************************************************************

 DFT| Spin restricted Kohn-Sham (RKS) calculation                            RKS
 DFT| Multiplicity                                                             1
 DFT| Number of spin states                                                    1
 DFT| Charge                                                                   0
 DFT| Self-interaction correction (SIC)                                       NO
 DFT| Cutoffs: density                                              1.000000E-10
 DFT|          gradient                                             1.000000E-10
 DFT|          tau                                                  1.000000E-10
 DFT|          cutoff_smoothing_range                               0.000000E+00
 DFT| XC density smoothing                                                  NONE
 DFT| XC derivatives                                                          PW

 FUNCTIONAL| PBE:
 FUNCTIONAL| J.P.Perdew, K.Burke, M.Ernzerhof, Phys. Rev. Letter, vol. 77, n 18,
 FUNCTIONAL|  pp. 3865-3868, (1996){spin unpolarized}                           

 vdW POTENTIAL|                                                   Pair Potential
 vdW POTENTIAL|          DFT-D3 (Version 3.1)
 vdW POTENTIAL|          Potential Form: S. Grimme et al, JCP 132: 154104 (2010)
 vdW POTENTIAL|          Zero Damping
 vdW POTENTIAL|          Cutoff Radius [Bohr]:                             20.00
 vdW POTENTIAL|          s6 Scaling Factor:                               1.0000
 vdW POTENTIAL|          sr6 Scaling Factor:                              1.2170
 vdW POTENTIAL|          s8 Scaling Factor:                               0.7220
 vdW POTENTIAL|          Cutoff for CN calculation:                   0.1000E-05

 QS| Method:                                                                 GPW
 QS| Density plane wave grid type                        NON-SPHERICAL FULLSPACE
 QS| Number of grid levels:                                                    4
 QS| Density cutoff [a.u.]:                                                200.0
 QS| Multi grid cutoff [a.u.]: 1) grid level                               200.0
 QS|                           2) grid level                                66.7
 QS|                           3) grid level                                22.2
 QS|                           4) grid level                                 7.4
 QS| Grid level progression factor:                                          3.0
 QS| Relative density cutoff [a.u.]:                                        20.0
 QS| Interaction thresholds: eps_pgf_orb:                                3.2E-07
 QS|                         eps_filter_matrix:                          0.0E+00
 QS|                         eps_core_charge:                            1.0E-15
 QS|                         eps_rho_gspace:                             1.0E-13
 QS|                         eps_rho_rspace:                             1.0E-13
 QS|                         eps_gvg_rspace:                             3.2E-07
 QS|                         eps_ppl:                                    1.0E-02
 QS|                         eps_ppnl:                                   3.2E-09


 ATOMIC KIND INFORMATION

  1. Atomic kind: O                                     Number of atoms:      99

     Orbital Basis Set                                        DZVP-MOLOPT-SR-GTH

       Number of orbital shell sets:                                           1
       Number of orbital shells:                                               5
       Number of primitive Cartesian functions:                                5
       Number of Cartesian basis functions:                                   14
       Number of spherical basis functions:                                   13
       Norm type:                                                              2

       Normalised Cartesian orbitals:

                        Set   Shell   Orbital            Exponent    Coefficient

                          1       1    2s               10.389228       0.396646
                                                         3.849621       0.208811
                                                         1.388401      -0.301641
                                                         0.496955      -0.274061
                                                         0.162492      -0.033677

                          1       2    3s               10.389228       0.303673
                                                         3.849621       0.240943
                                                         1.388401      -0.313066
                                                         0.496955      -0.043055
                                                         0.162492       0.213991

                          1       3    3px              10.389228      -1.530415
                                                         3.849621      -1.371928
                                                         1.388401      -0.761951
                                                         0.496955      -0.253695
                                                         0.162492      -0.035541
                          1       3    3py              10.389228      -1.530415
                                                         3.849621      -1.371928
                                                         1.388401      -0.761951
                                                         0.496955      -0.253695
                                                         0.162492      -0.035541
                          1       3    3pz              10.389228      -1.530415
                                                         3.849621      -1.371928
                                                         1.388401      -0.761951
                                                         0.496955      -0.253695
                                                         0.162492      -0.035541

                          1       4    4px              10.389228      -0.565392
                                                         3.849621      -0.038231
                                                         1.388401      -0.382373
                                                         0.496955       0.179070
                                                         0.162492       0.122714
                          1       4    4py              10.389228      -0.565392
                                                         3.849621      -0.038231
                                                         1.388401      -0.382373
                                                         0.496955       0.179070
                                                         0.162492       0.122714
                          1       4    4pz              10.389228      -0.565392
                                                         3.849621      -0.038231
                                                         1.388401      -0.382373
                                                         0.496955       0.179070
                                                         0.162492       0.122714

                          1       5    4dx2             10.389228       1.867377
                                                         3.849621       0.670994
                                                         1.388401       1.353441
                                                         0.496955       0.273538
                                                         0.162492       0.006620
                          1       5    4dxy             10.389228       3.234392
                                                         3.849621       1.162195
                                                         1.388401       2.344229
                                                         0.496955       0.473781
                                                         0.162492       0.011466
                          1       5    4dxz             10.389228       3.234392
                                                         3.849621       1.162195
                                                         1.388401       2.344229
                                                         0.496955       0.473781
                                                         0.162492       0.011466
                          1       5    4dy2             10.389228       1.867377
                                                         3.849621       0.670994
                                                         1.388401       1.353441
                                                         0.496955       0.273538
                                                         0.162492       0.006620
                          1       5    4dyz             10.389228       3.234392
                                                         3.849621       1.162195
                                                         1.388401       2.344229
                                                         0.496955       0.473781
                                                         0.162492       0.011466
                          1       5    4dz2             10.389228       1.867377
                                                         3.849621       0.670994
                                                         1.388401       1.353441
                                                         0.496955       0.273538
                                                         0.162492       0.006620

       Atomic covalent radius [Angstrom]:                                  0.730

       Atomic van der Waals radius [Angstrom]:                             1.520

     GTH Potential information for                                    GTH-PBE-q6

       Description:                       Goedecker-Teter-Hutter pseudopotential
                                           Goedecker et al., PRB 54, 1703 (1996)
                                          Hartwigsen et al., PRB 58, 3641 (1998)
                                                      Krack, TCA 114, 145 (2005)

       Gaussian exponent of the core charge distribution:               8.360253
       Electronic configuration (s p d ...):                               2   4

       Parameters of the local part of the GTH pseudopotential:

                          rloc        C1          C2          C3          C4
                        0.244554  -16.667215    2.487311

       Parameters of the non-local part of the GTH pseudopotential:

                   l      r(l)      h(i,j,l)

                   0    0.220956   18.337458
                   1    0.211332

  2. Atomic kind: H                                     Number of atoms:     198

     Orbital Basis Set                                        DZVP-MOLOPT-SR-GTH

       Number of orbital shell sets:                                           1
       Number of orbital shells:                                               3
       Number of primitive Cartesian functions:                                5
       Number of Cartesian basis functions:                                    5
       Number of spherical basis functions:                                    5
       Norm type:                                                              2

       Normalised Cartesian orbitals:

                        Set   Shell   Orbital            Exponent    Coefficient

                          1       1    2s               10.068468      -0.133023
                                                         2.680223      -0.177618
                                                         0.791502      -0.258419
                                                         0.239116      -0.107525
                                                         0.082193      -0.014019

                          1       2    3s               10.068468       0.344673
                                                         2.680223       1.819821
                                                         0.791502      -0.999069
                                                         0.239116       0.017430
                                                         0.082193       0.082660

                          1       3    3px              10.068468       0.155326
                                                         2.680223       0.367157
                                                         0.791502       0.311480
                                                         0.239116       0.080105
                                                         0.082193       0.033440
                          1       3    3py              10.068468       0.155326
                                                         2.680223       0.367157
                                                         0.791502       0.311480
                                                         0.239116       0.080105
                                                         0.082193       0.033440
                          1       3    3pz              10.068468       0.155326
                                                         2.680223       0.367157
                                                         0.791502       0.311480
                                                         0.239116       0.080105
                                                         0.082193       0.033440

       Atomic covalent radius [Angstrom]:                                  0.320

       Atomic van der Waals radius [Angstrom]:                             1.090

     GTH Potential information for                                    GTH-PBE-q1

       Description:                       Goedecker-Teter-Hutter pseudopotential
                                           Goedecker et al., PRB 54, 1703 (1996)
                                          Hartwigsen et al., PRB 58, 3641 (1998)
                                                      Krack, TCA 114, 145 (2005)

       Gaussian exponent of the core charge distribution:              12.500000
       Electronic configuration (s p d ...):                                   1

       Parameters of the local part of the GTH pseudopotential:

                          rloc        C1          C2          C3          C4
                        0.200000   -4.178900    0.724463

  3. Atomic kind: Pt                                    Number of atoms:     216

     Orbital Basis Set                      DZVP-A5-Q10-323-MOL-T1-DERIVED_SET-1

       Number of orbital shell sets:                                           1
       Number of orbital shells:                                               6
       Number of primitive Cartesian functions:                                5
       Number of Cartesian basis functions:                                   23
       Number of spherical basis functions:                                   20
       Norm type:                                                              2

       Normalised Cartesian orbitals:

                        Set   Shell   Orbital            Exponent    Coefficient

                          1       1    2s                2.521825       0.177473
                                                         1.453920      -0.063399
                                                         0.614053      -0.407089
                                                         0.232656       0.262254
                                                         0.074788       0.047371

                          1       2    3s                2.521825      -0.049056
                                                         1.453920       0.044904
                                                         0.614053      -0.009756
                                                         0.232656      -0.144709
                                                         0.074788       0.144085

                          1       3    3px               2.521825      -0.317572
                                                         1.453920       0.534826
                                                         0.614053      -0.489458
                                                         0.232656       0.245631
                                                         0.074788       0.018221
                          1       3    3py               2.521825      -0.317572
                                                         1.453920       0.534826
                                                         0.614053      -0.489458
                                                         0.232656       0.245631
                                                         0.074788       0.018221
                          1       3    3pz               2.521825      -0.317572
                                                         1.453920       0.534826
                                                         0.614053      -0.489458
                                                         0.232656       0.245631
                                                         0.074788       0.018221

                          1       4    4dx2              2.521825       3.008522
                                                         1.453920      -1.224251
                                                         0.614053       0.225691
                                                         0.232656       0.125144
                                                         0.074788      -0.015348
                          1       4    4dxy              2.521825       5.210912
                                                         1.453920      -2.120465
                                                         0.614053       0.390909
                                                         0.232656       0.216756
                                                         0.074788      -0.026584
                          1       4    4dxz              2.521825       5.210912
                                                         1.453920      -2.120465
                                                         0.614053       0.390909
                                                         0.232656       0.216756
                                                         0.074788      -0.026584
                          1       4    4dy2              2.521825       3.008522
                                                         1.453920      -1.224251
                                                         0.614053       0.225691
                                                         0.232656       0.125144
                                                         0.074788      -0.015348
                          1       4    4dyz              2.521825       5.210912
                                                         1.453920      -2.120465
                                                         0.614053       0.390909
                                                         0.232656       0.216756
                                                         0.074788      -0.026584
                          1       4    4dz2              2.521825       3.008522
                                                         1.453920      -1.224251
                                                         0.614053       0.225691
                                                         0.232656       0.125144
                                                         0.074788      -0.015348

                          1       5    5dx2              2.521825       0.698026
                                                         1.453920      -1.511486
                                                         0.614053      -0.335394
                                                         0.232656      -0.025564
                                                         0.074788      -0.002699
                          1       5    5dxy              2.521825       1.209017
                                                         1.453920      -2.617970
                                                         0.614053      -0.580920
                                                         0.232656      -0.044277
                                                         0.074788      -0.004674
                          1       5    5dxz              2.521825       1.209017
                                                         1.453920      -2.617970
                                                         0.614053      -0.580920
                                                         0.232656      -0.044277
                                                         0.074788      -0.004674
                          1       5    5dy2              2.521825       0.698026
                                                         1.453920      -1.511486
                                                         0.614053      -0.335394
                                                         0.232656      -0.025564
                                                         0.074788      -0.002699
                          1       5    5dyz              2.521825       1.209017
                                                         1.453920      -2.617970
                                                         0.614053      -0.580920
                                                         0.232656      -0.044277
                                                         0.074788      -0.004674
                          1       5    5dz2              2.521825       0.698026
                                                         1.453920      -1.511486
                                                         0.614053      -0.335394
                                                         0.232656      -0.025564
                                                         0.074788      -0.002699

                          1       6    6dx2              2.521825       0.831079
                                                         1.453920      -0.709226
                                                         0.614053      -0.137351
                                                         0.232656       0.068642
                                                         0.074788       0.011745
                          1       6    6dxy              2.521825       1.439472
                                                         1.453920      -1.228415
                                                         0.614053      -0.237899
                                                         0.232656       0.118891
                                                         0.074788       0.020343
                          1       6    6dxz              2.521825       1.439472
                                                         1.453920      -1.228415
                                                         0.614053      -0.237899
                                                         0.232656       0.118891
                                                         0.074788       0.020343
                          1       6    6dy2              2.521825       0.831079
                                                         1.453920      -0.709226
                                                         0.614053      -0.137351
                                                         0.232656       0.068642
                                                         0.074788       0.011745
                          1       6    6dyz              2.521825       1.439472
                                                         1.453920      -1.228415
                                                         0.614053      -0.237899
                                                         0.232656       0.118891
                                                         0.074788       0.020343
                          1       6    6dz2              2.521825       0.831079
                                                         1.453920      -0.709226
                                                         0.614053      -0.137351
                                                         0.232656       0.068642
                                                         0.074788       0.011745

       Atomic covalent radius [Angstrom]:                                  1.300

       Atomic van der Waals radius [Angstrom]:                             1.750

     GTH Potential information for                                   GTH-PBE-q10

       Description:                       Goedecker-Teter-Hutter pseudopotential
                                           Goedecker et al., PRB 54, 1703 (1996)
                                          Hartwigsen et al., PRB 58, 3641 (1998)
                                                      Krack, TCA 114, 145 (2005)

       Gaussian exponent of the core charge distribution:               1.317676
       Electronic configuration (s p d ...):                           1   0   9

       Parameters of the local part of the GTH pseudopotential:

                          rloc        C1          C2          C3          C4
                        0.616000   11.313635

       Parameters of the non-local part of the GTH pseudopotential:

                   l      r(l)      h(i,j,l)

                   0    0.550904    4.733491   -1.784594
                                   -1.784594    2.303901
                   1    0.674138    2.534798   -1.778066
                                   -1.778066    2.103836
                   2    0.457392   -7.264011    2.558665
                                    2.558665   -2.901253


 MOLECULE KIND INFORMATION


 All atoms are their own molecule, skipping detailed information


 TOTAL NUMBERS AND MAXIMUM NUMBERS

  Total number of            - Atomic kinds:                                   3
                             - Atoms:                                        513
                             - Shell sets:                                   513
                             - Shells:                                      2385
                             - Primitive Cartesian functions:               2565
                             - Cartesian basis functions:                   7344
                             - Spherical basis functions:                   6597

  Maximum angular momentum of- Orbital basis functions:                        2
                             - Local part of the GTH pseudopotential:          2
                             - Non-local part of the GTH pseudopotential:      4


 MODULE QUICKSTEP:  ATOMIC COORDINATES IN angstrom

 Atom  Kind  Element       X           Y           Z          Z(eff)       Mass
    1   1 O    8      -1.490000   -0.370000   37.468002       6.0000     15.9994
    2   2 H    1      -0.990000   -0.330000   36.528001       1.0000      1.0079
    3   2 H    1      -2.200000   -1.040000   37.318002       1.0000      1.0079
    4   1 O    8      10.080000    3.240000   30.088001       6.0000     15.9994
    5   2 H    1       9.690001    4.100000   29.818001       1.0000      1.0079
    6   2 H    1      10.940001    3.200000   29.528001       1.0000      1.0079
    7   1 O    8       5.860000   -0.420000   37.728002       6.0000     15.9994
    8   2 H    1       5.870000    0.460000   38.188001       1.0000      1.0079
    9   2 H    1       4.970000   -0.480000   37.298002       1.0000      1.0079
   10   1 O    8       2.070000   26.210001   30.118001       6.0000     15.9994
   11   2 H    1       2.470000   26.530001   31.008001       1.0000      1.0079
   12   2 H    1       2.240000   26.930000   29.468001       1.0000      1.0079
   13   1 O    8       0.360000   24.320002   29.078000       6.0000     15.9994
   14   2 H    1       1.060000   25.030001   29.298001       1.0000      1.0079
   15   2 H    1       9.300001    8.920000   29.458001       1.0000      1.0079
   16   1 O    8      25.080002   22.220001   29.688001       6.0000     15.9994
   17   2 H    1      24.980001   21.490002   29.058001       1.0000      1.0079
   18   2 H    1      24.139999   22.380001   30.108001       1.0000      1.0079
   19   1 O    8     -11.180000   22.600000   30.588001       6.0000     15.9994
   20   2 H    1     -11.520000   23.520000   30.488001       1.0000      1.0079
   21   2 H    1     -11.760000   21.910002   30.208001       1.0000      1.0079
   22   1 O    8      -2.320000    4.760000   39.418002       6.0000     15.9994
   23   2 H    1      -2.030000    3.880000   38.918001       1.0000      1.0079
   24   2 H    1      -2.640000    5.350000   38.668001       1.0000      1.0079
   25   1 O    8       7.380000    3.820000   34.248000       6.0000     15.9994
   26   2 H    1       6.740000    3.660000   35.038001       1.0000      1.0079
   27   2 H    1      24.460001    2.910000   33.888001       1.0000      1.0079
   28   1 O    8      16.820000    4.020000   30.558001       6.0000     15.9994
   29   2 H    1       8.730000   17.870001   31.118001       1.0000      1.0079
   30   2 H    1      17.660000    4.370000   30.168001       1.0000      1.0079
   31   1 O    8     -10.780001  -17.150000   39.818002       6.0000     15.9994
   32   2 H    1     -10.380001  -18.100000   39.998000       1.0000      1.0079
   33   2 H    1     -11.070000  -17.240002   38.868001       1.0000      1.0079
   34   1 O    8       8.620001    5.610001   29.858001       6.0000     15.9994
   35   2 H    1       8.780001    6.530001   30.118001       1.0000      1.0079
   36   2 H    1       8.960000    5.500000   28.918001       1.0000      1.0079
   37   1 O    8       5.470000   19.960001   34.658001       6.0000     15.9994
   38   2 H    1       4.750000   19.570002   34.068001       1.0000      1.0079
   39   2 H    1       6.240000   19.460001   34.368000       1.0000      1.0079
   40   1 O    8      15.730000   -0.550000   33.008002       6.0000     15.9994
   41   2 H    1      -0.850000   -1.130000   32.318001       1.0000      1.0079
   42   2 H    1      14.790001   -0.730000   33.278001       1.0000      1.0079
   43   1 O    8      -2.860000  -11.960001   30.488001       6.0000     15.9994
   44   2 H    1      -3.700000  -12.500000   30.108001       1.0000      1.0079
   45   2 H    1      -2.080000  -12.560000   30.278001       1.0000      1.0079
   46   1 O    8       0.350000   11.290001   30.398001       6.0000     15.9994
   47   2 H    1       0.770000   12.230001   30.278001       1.0000      1.0079
   48   2 H    1       0.980000   10.670000   30.028001       1.0000      1.0079
   49   1 O    8      20.130001   10.460000   29.948001       6.0000     15.9994
   50   2 H    1      20.010002   10.240001   28.948001       1.0000      1.0079
   51   2 H    1      19.920002    9.550000   30.328000       1.0000      1.0079
   52   1 O    8      -0.030000   20.590000   37.818000       6.0000     15.9994
   53   2 H    1       0.750000   20.930002   38.288001       1.0000      1.0079
   54   2 H    1       0.370000   20.290001   36.978001       1.0000      1.0079
   55   1 O    8     -14.590001    8.110001   30.758001       6.0000     15.9994
   56   2 H    1     -14.930000    8.340000   31.668001       1.0000      1.0079
   57   2 H    1     -15.430001    7.860000   30.248001       1.0000      1.0079
   58   1 O    8     -19.980001    8.110001   39.668002       6.0000     15.9994
   59   2 H    1     -27.750000   22.610001   40.428001       1.0000      1.0079
   60   2 H    1     -20.040001    9.100000   39.688001       1.0000      1.0079
   61   1 O    8      15.090000   -3.530000   34.928001       6.0000     15.9994
   62   2 H    1      15.360001   -4.330000   35.468001       1.0000      1.0079
   63   2 H    1       5.950000   10.580001   34.458001       1.0000      1.0079
   64   1 O    8     -17.050001   18.130001   39.208001       6.0000     15.9994
   65   2 H    1     -17.390001   18.440001   40.118001       1.0000      1.0079
   66   2 H    1     -16.910002   18.950001   38.668001       1.0000      1.0079
   67   1 O    8      -5.690000    6.960001   37.748000       6.0000     15.9994
   68   2 H    1      -4.820000    6.480000   37.798002       1.0000      1.0079
   69   2 H    1      -6.010000    7.190001   38.658000       1.0000      1.0079
   70   1 O    8       7.040000   16.720001   29.158001       6.0000     15.9994
   71   2 H    1       7.570000   15.850000   29.358001       1.0000      1.0079
   72   2 H    1       7.580000   17.530001   29.518001       1.0000      1.0079
   73   1 O    8     -10.810001   28.670002   32.598001       6.0000     15.9994
   74   2 H    1       5.460000   29.280003   32.978001       1.0000      1.0079
   75   2 H    1     -11.130000   27.750000   32.838001       1.0000      1.0079
   76   1 O    8       5.890000   -0.480000   30.018001       6.0000     15.9994
   77   2 H    1       5.950000   -0.400000   31.008001       1.0000      1.0079
   78   2 H    1       5.000000   -0.220000   29.738000       1.0000      1.0079
   79   1 O    8       2.560000   12.160001   37.548002       6.0000     15.9994
   80   2 H    1       1.850000   11.940001   36.998000       1.0000      1.0079
   81   2 H    1       2.350000   12.830001   38.248000       1.0000      1.0079
   82   1 O    8       5.060000    3.320000   36.218002       6.0000     15.9994
   83   2 H    1       4.360000    3.910000   36.458001       1.0000      1.0079
   84   2 H    1       5.340000    2.810000   37.048000       1.0000      1.0079
   85   1 O    8       5.850000   24.680002   35.248001       6.0000     15.9994
   86   2 H    1       6.020000   23.820002   34.688001       1.0000      1.0079
   87   2 H    1       5.100000   24.460001   35.988001       1.0000      1.0079
   88   1 O    8      -7.200000   17.120001   38.718002       6.0000     15.9994
   89   2 H    1      -8.130000   16.800001   38.858001       1.0000      1.0079
   90   2 H    1      -6.620001   16.380001   38.828002       1.0000      1.0079
   91   1 O    8       4.400000   13.680000   33.398000       6.0000     15.9994
   92   2 H    1       4.300000   14.430000   34.058002       1.0000      1.0079
   93   2 H    1       4.250000   14.010000   32.448001       1.0000      1.0079
   94   1 O    8      19.240002   -7.320001   33.048001       6.0000     15.9994
   95   2 H    1      10.770000    6.300001   33.188001       1.0000      1.0079
   96   2 H    1      20.190001   -7.120000   33.098001       1.0000      1.0079
   97   1 O    8      -0.100000   -0.120000   35.438002       6.0000     15.9994
   98   2 H    1      -0.500000   -0.520000   34.648000       1.0000      1.0079
   99   2 H    1       0.020000    0.830000   35.148001       1.0000      1.0079
  100   1 O    8       2.060000   34.270000   29.418001       6.0000     15.9994
  101   2 H    1       2.300000   35.230003   29.378002       1.0000      1.0079
  102   2 H    1      19.410002   33.960003   30.278001       1.0000      1.0079
  103   1 O    8       0.120000    9.130000   39.528001       6.0000     15.9994
  104   2 H    1      -0.200000    9.010000   38.608001       1.0000      1.0079
  105   2 H    1      -0.190000   10.000000   39.808002       1.0000      1.0079
  106   1 O    8       4.640000   -4.060000   30.228001       6.0000     15.9994
  107   2 H    1       5.210000   -3.590000   29.578000       1.0000      1.0079
  108   2 H    1       3.760000   -4.210001   29.838001       1.0000      1.0079
  109   1 O    8      11.970000    9.610001   37.348001       6.0000     15.9994
  110   2 H    1      11.590000    8.640000   37.338001       1.0000      1.0079
  111   2 H    1      12.400000    9.820001   38.188001       1.0000      1.0079
  112   1 O    8      -4.740000   15.740002   29.978001       6.0000     15.9994
  113   2 H    1      -5.280000   15.820000   30.848001       1.0000      1.0079
  114   2 H    1      -5.410000   15.850000   29.188001       1.0000      1.0079
  115   1 O    8     -17.510000   14.970001   35.628002       6.0000     15.9994
  116   2 H    1     -18.140001   14.740001   36.328001       1.0000      1.0079
  117   2 H    1     -16.760002   15.470000   36.048002       1.0000      1.0079
  118   1 O    8      -3.430000   11.710000   33.068000       6.0000     15.9994
  119   2 H    1      -3.130000   11.280001   32.218002       1.0000      1.0079
  120   2 H    1      -3.020000   11.280001   33.828001       1.0000      1.0079
  121   1 O    8       4.050000  -13.360001   35.268001       6.0000     15.9994
  122   2 H    1       4.920000  -12.820001   35.518001       1.0000      1.0079
  123   2 H    1      12.160001    1.620000   34.428001       1.0000      1.0079
  124   1 O    8       3.010000    9.740001   38.838001       6.0000     15.9994
  125   2 H    1       3.160000   10.640000   38.278001       1.0000      1.0079
  126   2 H    1       2.050000    9.700001   38.838001       1.0000      1.0079
  127   1 O    8      -3.060000    6.130000   37.368001       6.0000     15.9994
  128   2 H    1     -19.230001    6.870000   37.208001       1.0000      1.0079
  129   2 H    1      -3.040000    5.640000   36.498001       1.0000      1.0079
  130   1 O    8       9.490001    4.590000   35.738001       6.0000     15.9994
  131   2 H    1       8.740000    4.190001   35.088001       1.0000      1.0079
  132   2 H    1       9.710001    3.720000   36.208001       1.0000      1.0079
  133   1 O    8       7.990000    1.240000   30.108001       6.0000     15.9994
  134   2 H    1       7.580000    1.240000   29.178001       1.0000      1.0079
  135   2 H    1       8.740000    1.980000   30.078001       1.0000      1.0079
  136   1 O    8     -10.760001    9.410001   29.178001       6.0000     15.9994
  137   2 H    1     -11.180000    8.550000   29.488001       1.0000      1.0079
  138   2 H    1      -9.800000    9.250001   29.158001       1.0000      1.0079
  139   1 O    8      11.010000   -3.380000   34.438001       6.0000     15.9994
  140   2 H    1      10.110001   -3.160000   34.608001       1.0000      1.0079
  141   2 H    1      11.340000   -2.470000   34.218001       1.0000      1.0079
  142   1 O    8       7.860000   12.600001   30.858001       6.0000     15.9994
  143   2 H    1       6.960001   12.280001   30.558001       1.0000      1.0079
  144   2 H    1       8.410000   11.800001   30.798001       1.0000      1.0079
  145   1 O    8      -5.880000   12.880001   32.518001       6.0000     15.9994
  146   2 H    1      -6.710000   12.510000   32.968001       1.0000      1.0079
  147   2 H    1      -5.170000   12.310000   32.928001       1.0000      1.0079
  148   1 O    8      17.640001   26.040001   34.098001       6.0000     15.9994
  149   2 H    1      17.550001   25.110001   33.818001       1.0000      1.0079
  150   2 H    1      16.660002   26.280001   34.308002       1.0000      1.0079
  151   1 O    8      11.840000   14.220000   36.008001       6.0000     15.9994
  152   2 H    1      11.540001   13.290001   35.858001       1.0000      1.0079
  153   2 H    1      11.010000   14.760000   36.018001       1.0000      1.0079
  154   1 O    8      16.639999   15.960001   33.108001       6.0000     15.9994
  155   2 H    1      16.580002   15.490000   33.938001       1.0000      1.0079
  156   2 H    1      16.140001   15.460001   32.478000       1.0000      1.0079
  157   1 O    8      -5.770000   15.500001   32.428001       6.0000     15.9994
  158   2 H    1      -5.710001   14.570000   32.748001       1.0000      1.0079
  159   2 H    1      -5.010000   15.900001   32.928001       1.0000      1.0079
  160   1 O    8      -7.390000   12.460001   38.148000       6.0000     15.9994
  161   2 H    1      -6.760001   12.320002   37.308002       1.0000      1.0079
  162   2 H    1      -8.020000   13.140000   37.848001       1.0000      1.0079
  163   1 O    8       1.790000   16.740000   36.678001       6.0000     15.9994
  164   2 H    1       1.950000   16.460001   37.648002       1.0000      1.0079
  165   2 H    1       2.620000   16.630001   36.198001       1.0000      1.0079
  166   1 O    8      -4.550000    6.000000   29.768001       6.0000     15.9994
  167   2 H    1      -4.790000    5.380001   29.088001       1.0000      1.0079
  168   2 H    1      -4.130000    5.450000   30.488001       1.0000      1.0079
  169   1 O    8       4.620000   16.580002   29.008001       6.0000     15.9994
  170   2 H    1       4.110000   15.810001   29.428001       1.0000      1.0079
  171   2 H    1       5.610001   16.470001   29.038000       1.0000      1.0079
  172   1 O    8      24.790001   23.180000   37.048000       6.0000     15.9994
  173   2 H    1      24.240000   23.840000   36.618001       1.0000      1.0079
  174   2 H    1      25.630001   23.040001   36.388001       1.0000      1.0079
  175   1 O    8      17.160000    2.130000   32.508001       6.0000     15.9994
  176   2 H    1      16.670000    1.290000   32.398002       1.0000      1.0079
  177   2 H    1      18.110001    1.840000   32.568001       1.0000      1.0079
  178   1 O    8     -12.760000   14.580001   30.568000       6.0000     15.9994
  179   2 H    1     -12.410001   13.700001   30.128001       1.0000      1.0079
  180   2 H    1     -13.730000   14.340000   30.528001       1.0000      1.0079
  181   1 O    8      24.970001   47.660004   34.348001       6.0000     15.9994
  182   2 H    1      25.750000   47.650002   35.058001       1.0000      1.0079
  183   2 H    1      25.250000   47.020000   33.638001       1.0000      1.0079
  184   1 O    8      22.750000    5.000000   29.368000       6.0000     15.9994
  185   2 H    1      23.740002    5.200000   29.348001       1.0000      1.0079
  186   2 H    1      22.670002    3.980000   29.788001       1.0000      1.0079
  187   1 O    8     -11.830001   17.110001   32.548002       6.0000     15.9994
  188   2 H    1     -12.680000   16.840002   32.078000       1.0000      1.0079
  189   2 H    1      -2.830000    1.760000   32.528000       1.0000      1.0079
  190   1 O    8      -5.260000   -8.550000   33.118000       6.0000     15.9994
  191   2 H    1      -4.350000   -8.950001   33.178001       1.0000      1.0079
  192   2 H    1      -5.060000   -7.970000   32.338001       1.0000      1.0079
  193   1 O    8       5.420001   -6.720000   33.548002       6.0000     15.9994
  194   2 H    1       5.730000   -7.650001   33.718002       1.0000      1.0079
  195   2 H    1       5.830000   -6.470000   32.648001       1.0000      1.0079
  196   1 O    8     -15.510001   13.790001   29.948001       6.0000     15.9994
  197   2 H    1     -16.180000   14.470000   30.128001       1.0000      1.0079
  198   2 H    1     -15.200001   13.820001   29.018001       1.0000      1.0079
  199   1 O    8       4.710000    7.350000   30.148001       6.0000     15.9994
  200   2 H    1       3.680000    7.400000   30.108001       1.0000      1.0079
  201   2 H    1      21.840000    6.400001   29.898001       1.0000      1.0079
  202   1 O    8       6.710000   -2.840000   29.128001       6.0000     15.9994
  203   2 H    1       7.600000   -3.120000   29.558001       1.0000      1.0079
  204   2 H    1       6.440001   -1.880000   29.488001       1.0000      1.0079
  205   1 O    8      16.150002   10.580001   32.738000       6.0000     15.9994
  206   2 H    1      16.760002   10.910001   33.388002       1.0000      1.0079
  207   2 H    1      16.550001   10.730000   31.818000       1.0000      1.0079
  208   1 O    8     -15.140000   13.610001   39.728002       6.0000     15.9994
  209   2 H    1     -15.980000   13.120001   39.848001       1.0000      1.0079
  210   2 H    1     -15.330001   14.580001   39.598003       1.0000      1.0079
  211   1 O    8      -6.860001   18.200001   36.158000       6.0000     15.9994
  212   2 H    1      -6.340000   19.040001   36.228002       1.0000      1.0079
  213   2 H    1      -6.960001   17.940001   37.098003       1.0000      1.0079
  214   1 O    8      14.030001   19.370001   32.418001       6.0000     15.9994
  215   2 H    1      14.250001   18.570002   31.828001       1.0000      1.0079
  216   2 H    1      14.450001   19.080002   33.328000       1.0000      1.0079
  217   1 O    8      16.480001    6.280000   32.268001       6.0000     15.9994
  218   2 H    1      16.530001    5.560000   32.878002       1.0000      1.0079
  219   2 H    1      16.830002    5.820000   31.508001       1.0000      1.0079
  220   1 O    8      11.380000    4.630000   33.588001       6.0000     15.9994
  221   2 H    1      10.620001    4.680000   34.248000       1.0000      1.0079
  222   2 H    1      11.110001    3.730000   33.168001       1.0000      1.0079
  223   1 O    8      -3.090000   -2.630000   37.248002       6.0000     15.9994
  224   2 H    1      -4.100000   -2.600000   37.018001       1.0000      1.0079
  225   2 H    1      -2.660000   -3.050000   36.478002       1.0000      1.0079
  226   1 O    8       5.340000    6.640000   35.738001       6.0000     15.9994
  227   2 H    1       6.330000    6.870000   35.848001       1.0000      1.0079
  228   2 H    1       4.910000    7.380000   35.198001       1.0000      1.0079
  229   1 O    8       0.130000   11.710000   35.638002       6.0000     15.9994
  230   2 H    1      -0.720000   11.290001   35.458001       1.0000      1.0079
  231   2 H    1      -0.100000   12.640000   35.828000       1.0000      1.0079
  232   1 O    8     -17.880001   22.889999   36.048002       6.0000     15.9994
  233   2 H    1     -17.190001   22.640001   36.658001       1.0000      1.0079
  234   2 H    1     -17.440001   22.889999   35.198001       1.0000      1.0079
  235   1 O    8       6.620001    7.410001   32.248000       6.0000     15.9994
  236   2 H    1       6.020000    7.730001   31.558000       1.0000      1.0079
  237   2 H    1       6.390000    6.440001   32.418001       1.0000      1.0079
  238   1 O    8      10.330000    8.120001   30.318001       6.0000     15.9994
  239   2 H    1      10.810001    7.440000   29.738000       1.0000      1.0079
  240   2 H    1      10.580001    7.830000   31.258001       1.0000      1.0079
  241   1 O    8       0.210000   29.480001   29.678001       6.0000     15.9994
  242   2 H    1       0.630000   29.130001   28.788001       1.0000      1.0079
  243   2 H    1      -0.380000   28.720001   29.978001       1.0000      1.0079
  244   1 O    8      22.910002   17.330000   36.358001       6.0000     15.9994
  245   2 H    1      23.390003   17.720001   35.568000       1.0000      1.0079
  246   2 H    1      23.540001   16.760002   36.808002       1.0000      1.0079
  247   1 O    8     -11.040001    7.450001   38.618001       6.0000     15.9994
  248   2 H    1     -10.400001    6.990001   37.998000       1.0000      1.0079
  249   2 H    1     -11.470001    8.020000   37.948001       1.0000      1.0079
  250   1 O    8       3.000000    6.020000   36.858001       6.0000     15.9994
  251   2 H    1       2.870000    6.160001   37.838003       1.0000      1.0079
  252   2 H    1       3.910000    6.390000   36.648001       1.0000      1.0079
  253   1 O    8      -9.740001   16.260000   39.018001       6.0000     15.9994
  254   2 H    1      -9.790000   15.910001   39.918001       1.0000      1.0079
  255   2 H    1      -9.850000   15.400001   38.398002       1.0000      1.0079
  256   1 O    8      -2.900000    4.870000   31.468001       6.0000     15.9994
  257   2 H    1      -3.110000    4.000000   31.838002       1.0000      1.0079
  258   2 H    1      -2.020000    5.240001   31.518001       1.0000      1.0079
  259   1 O    8      10.300001    1.640000   39.358001       6.0000     15.9994
  260   2 H    1       9.560000    2.340000   39.458001       1.0000      1.0079
  261   2 H    1      11.110001    1.990000   39.918001       1.0000      1.0079
  262   1 O    8      10.800000   14.770001   39.388002       6.0000     15.9994
  263   2 H    1      18.960001   -0.680000   38.938001       1.0000      1.0079
  264   2 H    1      11.130000   14.670001   40.358001       1.0000      1.0079
  265   1 O    8      11.330000   18.500002   31.738000       6.0000     15.9994
  266   2 H    1      11.100000   19.260002   32.318001       1.0000      1.0079
  267   2 H    1      12.270001   18.580000   31.568001       1.0000      1.0079
  268   1 O    8      10.900001   11.740000   36.068001       6.0000     15.9994
  269   2 H    1      11.090001   10.830001   36.528001       1.0000      1.0079
  270   2 H    1      10.170001   11.510000   35.398001       1.0000      1.0079
  271   1 O    8      11.820001   -8.330001   39.548002       6.0000     15.9994
  272   2 H    1      11.150000   -7.900000   40.208001       1.0000      1.0079
  273   2 H    1      12.660000   -7.870001   39.578000       1.0000      1.0079
  274   1 O    8       0.890000    8.400001   32.978001       6.0000     15.9994
  275   2 H    1       0.140000    9.090000   32.888001       1.0000      1.0079
  276   2 H    1       0.560000    7.560000   32.778001       1.0000      1.0079
  277   1 O    8      10.690001   31.450003   32.528000       6.0000     15.9994
  278   2 H    1      10.490000   31.870001   31.628002       1.0000      1.0079
  279   2 H    1       9.810000   31.030003   32.818001       1.0000      1.0079
  280   1 O    8      -6.680000   23.280001   35.858001       6.0000     15.9994
  281   2 H    1      10.770000   22.590000   36.248001       1.0000      1.0079
  282   2 H    1      10.020000   22.920000   34.988001       1.0000      1.0079
  283   1 O    8       4.330000    9.200000   34.438001       6.0000     15.9994
  284   2 H    1       4.160000    9.210001   33.468002       1.0000      1.0079
  285   2 H    1       3.720000    9.860001   34.748001       1.0000      1.0079
  286   1 O    8      -3.670000   15.880001   34.228001       6.0000     15.9994
  287   2 H    1      -3.990000   15.140000   34.788001       1.0000      1.0079
  288   2 H    1      -3.710000   16.660002   34.778001       1.0000      1.0079
  289   1 O    8       8.740000    8.800000   33.718002       6.0000     15.9994
  290   2 H    1       9.550000    8.230000   33.748001       1.0000      1.0079
  291   2 H    1       8.090000    8.210000   33.178001       1.0000      1.0079
  292   1 O    8      -2.590000   16.880001   38.638002       6.0000     15.9994
  293   2 H    1      -1.770000   17.440001   38.728002       1.0000      1.0079
  294   2 H    1      -3.320000   17.120001   39.258001       1.0000      1.0079
  295   1 O    8     -11.520000   12.360001   29.698001       6.0000     15.9994
  296   2 H    1     -11.580001   12.480001   28.748001       1.0000      1.0079
  297   2 H    1       4.720000   11.570001   29.928001       1.0000      1.0079
  298   3 Pt  78       1.600000    0.810000   15.170002      10.0000    195.0840
  299   3 Pt  78       4.370000    0.630000   15.190002      10.0000    195.0840
  300   3 Pt  78       7.170000    0.700000   15.200001      10.0000    195.0840
  301   3 Pt  78       9.980000    0.750000   15.200001      10.0000    195.0840
  302   3 Pt  78      12.850000    0.780000   15.380001      10.0000    195.0840
  303   3 Pt  78      15.670000    0.860000   15.110004      10.0000    195.0840
  304   3 Pt  78       3.110000    3.140000   15.270004      10.0000    195.0840
  305   3 Pt  78       5.880000    3.270000   15.020000      10.0000    195.0840
  306   3 Pt  78       8.660001    3.160000   15.340004      10.0000    195.0840
  307   3 Pt  78      11.430000    3.060000   15.240002      10.0000    195.0840
  308   3 Pt  78      14.220000    3.290000   15.220001      10.0000    195.0840
  309   3 Pt  78       0.190000    3.260000   15.200001      10.0000    195.0840
  310   3 Pt  78       4.420000    5.610001   15.080002      10.0000    195.0840
  311   3 Pt  78       7.210000    5.600000   15.330002      10.0000    195.0840
  312   3 Pt  78      10.100000    5.480001   15.320004      10.0000    195.0840
  313   3 Pt  78      12.860001    5.700001   15.350002      10.0000    195.0840
  314   3 Pt  78      -1.170000    5.630000   15.150002      10.0000    195.0840
  315   3 Pt  78       1.680000    5.560000   15.140003      10.0000    195.0840
  316   3 Pt  78       5.830000    7.960001   15.230000      10.0000    195.0840
  317   3 Pt  78       8.600000    8.070001   15.280003      10.0000    195.0840
  318   3 Pt  78      11.300000    8.010000   15.050003      10.0000    195.0840
  319   3 Pt  78      -2.640000    8.020000   15.170002      10.0000    195.0840
  320   3 Pt  78       0.240000    8.120001   15.120003      10.0000    195.0840
  321   3 Pt  78       3.040000    8.050001   15.360001      10.0000    195.0840
  322   3 Pt  78       7.270000   10.559999   15.070000      10.0000    195.0840
  323   3 Pt  78      10.050000   10.600000   15.160000      10.0000    195.0840
  324   3 Pt  78      -4.050000   10.390000   15.170002      10.0000    195.0840
  325   3 Pt  78      -1.200000   10.400001   15.200001      10.0000    195.0840
  326   3 Pt  78       1.720000   10.400001   15.090000      10.0000    195.0840
  327   3 Pt  78       4.490000   10.580001   15.230000      10.0000    195.0840
  328   3 Pt  78       8.530001   12.930001   15.210003      10.0000    195.0840
  329   3 Pt  78      -5.550000   12.920000   15.000000      10.0000    195.0840
  330   3 Pt  78      -2.680000   12.850000   15.130001      10.0000    195.0840
  331   3 Pt  78       0.220000   12.850000   15.120003      10.0000    195.0840
  332   3 Pt  78       3.040000   12.800001   15.370003      10.0000    195.0840
  333   3 Pt  78       5.880000   13.050001   15.120003      10.0000    195.0840
  334   3 Pt  78       0.200000    1.660000   17.550003      10.0000    195.0840
  335   3 Pt  78       3.040000    1.520000   17.480003      10.0000    195.0840
  336   3 Pt  78       5.900001    1.480000   17.590000      10.0000    195.0840
  337   3 Pt  78       8.640000    1.530000   17.560001      10.0000    195.0840
  338   3 Pt  78      11.440001    1.500000   17.630001      10.0000    195.0840
  339   3 Pt  78      14.230001    1.540000   17.670002      10.0000    195.0840
  340   3 Pt  78       1.600000    4.020000   17.560001      10.0000    195.0840
  341   3 Pt  78       4.510000    3.910000   17.630001      10.0000    195.0840
  342   3 Pt  78       7.250000    3.980000   17.590000      10.0000    195.0840
  343   3 Pt  78      10.080000    3.980000   17.660000      10.0000    195.0840
  344   3 Pt  78      12.920000    3.800000   17.650002      10.0000    195.0840
  345   3 Pt  78      -1.180000    4.040000   17.590000      10.0000    195.0840
  346   3 Pt  78       3.040000    6.380000   17.600002      10.0000    195.0840
  347   3 Pt  78       5.920000    6.390000   17.570000      10.0000    195.0840
  348   3 Pt  78       8.540000    6.560000   17.640003      10.0000    195.0840
  349   3 Pt  78      11.250000    6.370000   17.630001      10.0000    195.0840
  350   3 Pt  78      -2.660000    6.370000   17.630001      10.0000    195.0840
  351   3 Pt  78       0.260000    6.480000   17.530003      10.0000    195.0840
  352   3 Pt  78       4.500000    8.740000   17.560001      10.0000    195.0840
  353   3 Pt  78       7.170000    9.050000   17.450001      10.0000    195.0840
  354   3 Pt  78       9.980000    8.890000   17.430000      10.0000    195.0840
  355   3 Pt  78      -4.050000    8.820001   17.510002      10.0000    195.0840
  356   3 Pt  78      -1.190000    8.870000   17.520000      10.0000    195.0840
  357   3 Pt  78       1.630000    8.910000   17.590000      10.0000    195.0840
  358   3 Pt  78       5.820000   11.310000   17.570000      10.0000    195.0840
  359   3 Pt  78       8.500000   11.350001   17.460003      10.0000    195.0840
  360   3 Pt  78      -5.410000   11.300000   17.480003      10.0000    195.0840
  361   3 Pt  78      -2.690000   11.200000   17.420002      10.0000    195.0840
  362   3 Pt  78       0.230000   11.260000   17.510002      10.0000    195.0840
  363   3 Pt  78       2.960000   11.200000   17.570000      10.0000    195.0840
  364   3 Pt  78       7.270000   13.820001   17.470001      10.0000    195.0840
  365   3 Pt  78      -6.680000   13.640001   17.450001      10.0000    195.0840
  366   3 Pt  78      -3.940000   13.700001   17.410004      10.0000    195.0840
  367   3 Pt  78      -1.140000   13.640001   17.450001      10.0000    195.0840
  368   3 Pt  78       1.630000   13.730000   17.610004      10.0000    195.0840
  369   3 Pt  78       4.480000   13.690001   17.580002      10.0000    195.0840
  370   3 Pt  78      -8.290001   14.590001   19.810001      10.0000    195.0840
  371   3 Pt  78      -5.430000   14.540001   19.720001      10.0000    195.0840
  372   3 Pt  78      -2.600000   14.450001   19.890003      10.0000    195.0840
  373   3 Pt  78       0.100000   14.410001   19.840000      10.0000    195.0840
  374   3 Pt  78       2.970000   14.510001   19.900002      10.0000    195.0840
  375   3 Pt  78       5.840001   14.490002   20.040001      10.0000    195.0840
  376   3 Pt  78       1.570000    2.390000   19.820004      10.0000    195.0840
  377   3 Pt  78       4.410000    2.420000   19.840000      10.0000    195.0840
  378   3 Pt  78       7.250000    2.370000   19.960003      10.0000    195.0840
  379   3 Pt  78      10.010000    2.150000   19.850002      10.0000    195.0840
  380   3 Pt  78      12.890000    2.340000   19.980000      10.0000    195.0840
  381   3 Pt  78      -1.290000    2.330000   19.920002      10.0000    195.0840
  382   3 Pt  78       3.060000    4.840000   19.800003      10.0000    195.0840
  383   3 Pt  78       5.870000    4.810000   19.880001      10.0000    195.0840
  384   3 Pt  78       8.720000    4.760000   19.880001      10.0000    195.0840
  385   3 Pt  78      11.440001    4.740000   19.930004      10.0000    195.0840
  386   3 Pt  78      -2.670000    4.740000   19.830002      10.0000    195.0840
  387   3 Pt  78       0.210000    4.750000   19.850002      10.0000    195.0840
  388   3 Pt  78       4.450000    7.250000   19.880001      10.0000    195.0840
  389   3 Pt  78       7.160000    7.230001   19.850002      10.0000    195.0840
  390   3 Pt  78       9.970000    7.330000   19.820004      10.0000    195.0840
  391   3 Pt  78      -4.120000    7.200000   19.890003      10.0000    195.0840
  392   3 Pt  78      -1.190000    7.170000   19.890003      10.0000    195.0840
  393   3 Pt  78       1.590000    7.200000   19.850002      10.0000    195.0840
  394   3 Pt  78       5.860000    9.710001   19.840000      10.0000    195.0840
  395   3 Pt  78       8.620001    9.670001   19.750004      10.0000    195.0840
  396   3 Pt  78      -5.420001    9.650001   19.700001      10.0000    195.0840
  397   3 Pt  78      -2.640000    9.590000   19.810001      10.0000    195.0840
  398   3 Pt  78       0.240000    9.660000   19.950001      10.0000    195.0840
  399   3 Pt  78       3.030000    9.630001   19.920002      10.0000    195.0840
  400   3 Pt  78       7.260000   12.170000   19.930004      10.0000    195.0840
  401   3 Pt  78      -6.940000   12.140001   19.730003      10.0000    195.0840
  402   3 Pt  78      -4.010000   12.070000   19.780003      10.0000    195.0840
  403   3 Pt  78      -1.220000   12.020000   19.840000      10.0000    195.0840
  404   3 Pt  78       1.510000   12.070000   19.960003      10.0000    195.0840
  405   3 Pt  78       4.300000   12.130001   19.870003      10.0000    195.0840
  406   3 Pt  78       1.620000    0.690000   22.098000      10.0000    195.0840
  407   3 Pt  78       4.400000    0.690000   22.038000      10.0000    195.0840
  408   3 Pt  78       7.110000    0.640000   22.118000      10.0000    195.0840
  409   3 Pt  78       9.910001    0.650000   22.228000      10.0000    195.0840
  410   3 Pt  78      12.740001    0.700000   22.258000      10.0000    195.0840
  411   3 Pt  78      15.560001    0.670000   22.238000      10.0000    195.0840
  412   3 Pt  78       3.010000    2.990000   22.188001      10.0000    195.0840
  413   3 Pt  78       5.720000    3.160000   22.238000      10.0000    195.0840
  414   3 Pt  78       8.490001    3.220000   22.208001      10.0000    195.0840
  415   3 Pt  78      11.270000    3.120000   22.158001      10.0000    195.0840
  416   3 Pt  78      14.170000    3.150000   22.238000      10.0000    195.0840
  417   3 Pt  78       0.150000    3.050000   22.138001      10.0000    195.0840
  418   3 Pt  78       4.330000    5.540000   22.188001      10.0000    195.0840
  419   3 Pt  78       7.150001    5.670000   22.188001      10.0000    195.0840
  420   3 Pt  78       9.930000    5.620000   22.208001      10.0000    195.0840
  421   3 Pt  78      12.680000    5.510000   22.188001      10.0000    195.0840
  422   3 Pt  78      -1.280000    5.480001   22.158001      10.0000    195.0840
  423   3 Pt  78       1.670000    5.440001   22.118000      10.0000    195.0840
  424   3 Pt  78       5.800000    8.020000   22.148000      10.0000    195.0840
  425   3 Pt  78       8.590000    8.050001   22.198001      10.0000    195.0840
  426   3 Pt  78      11.340000    8.010000   22.168001      10.0000    195.0840
  427   3 Pt  78      -2.710000    7.940001   22.128001      10.0000    195.0840
  428   3 Pt  78       0.160000    7.920001   22.148000      10.0000    195.0840
  429   3 Pt  78       3.030000    7.970000   22.168001      10.0000    195.0840
  430   3 Pt  78       7.160000   10.530001   22.088000      10.0000    195.0840
  431   3 Pt  78       9.970000   10.480001   22.018001      10.0000    195.0840
  432   3 Pt  78      -4.000000   10.450001   22.038000      10.0000    195.0840
  433   3 Pt  78      -1.250000   10.390000   22.238000      10.0000    195.0840
  434   3 Pt  78       1.470000   10.480001   22.298001      10.0000    195.0840
  435   3 Pt  78       4.330000   10.450001   22.138001      10.0000    195.0840
  436   3 Pt  78       8.520000   12.890000   22.158001      10.0000    195.0840
  437   3 Pt  78      -5.480001   12.790001   21.968000      10.0000    195.0840
  438   3 Pt  78      -2.690000   12.800001   22.178001      10.0000    195.0840
  439   3 Pt  78       0.050000   12.780001   22.258000      10.0000    195.0840
  440   3 Pt  78       2.880000   12.840000   22.358001      10.0000    195.0840
  441   3 Pt  78       5.710001   12.940001   22.228000      10.0000    195.0840
  442   3 Pt  78       0.000000    1.420000   24.508001      10.0000    195.0840
  443   3 Pt  78       2.980000    1.420000   24.518001      10.0000    195.0840
  444   3 Pt  78       5.690000    1.450000   24.388001      10.0000    195.0840
  445   3 Pt  78       8.530001    1.450000   24.418001      10.0000    195.0840
  446   3 Pt  78      11.250000    1.500000   24.498001      10.0000    195.0840
  447   3 Pt  78      14.120001    1.420000   24.618001      10.0000    195.0840
  448   3 Pt  78       1.580000    3.830000   24.388001      10.0000    195.0840
  449   3 Pt  78       4.310000    3.860000   24.478001      10.0000    195.0840
  450   3 Pt  78       7.060000    3.940000   24.568001      10.0000    195.0840
  451   3 Pt  78       9.880000    3.930000   24.508001      10.0000    195.0840
  452   3 Pt  78      12.710000    3.750000   24.498001      10.0000    195.0840
  453   3 Pt  78      -1.330000    3.870000   24.538000      10.0000    195.0840
  454   3 Pt  78       2.880000    6.380000   24.428001      10.0000    195.0840
  455   3 Pt  78       5.680000    6.340000   24.368001      10.0000    195.0840
  456   3 Pt  78       8.490001    6.320000   24.538000      10.0000    195.0840
  457   3 Pt  78      11.310000    6.350000   24.448001      10.0000    195.0840
  458   3 Pt  78      -2.710000    6.260000   24.418001      10.0000    195.0840
  459   3 Pt  78       0.040000    6.190000   24.548001      10.0000    195.0840
  460   3 Pt  78       4.330000    8.820001   24.508001      10.0000    195.0840
  461   3 Pt  78       7.170000    8.650001   24.488000      10.0000    195.0840
  462   3 Pt  78       9.890000    8.820001   24.398001      10.0000    195.0840
  463   3 Pt  78      -4.030000    8.760000   24.348001      10.0000    195.0840
  464   3 Pt  78      -1.290000    8.660001   24.448001      10.0000    195.0840
  465   3 Pt  78       1.440000    8.770000   24.498001      10.0000    195.0840
  466   3 Pt  78       5.690000   11.130000   24.528001      10.0000    195.0840
  467   3 Pt  78       8.560000   11.170001   24.388001      10.0000    195.0840
  468   3 Pt  78      -5.540000   11.170001   24.288001      10.0000    195.0840
  469   3 Pt  78      -2.690000   11.200000   24.498001      10.0000    195.0840
  470   3 Pt  78       0.040000   11.270000   24.708001      10.0000    195.0840
  471   3 Pt  78       2.850000   11.200000   24.568001      10.0000    195.0840
  472   3 Pt  78       7.160000   13.540001   24.498001      10.0000    195.0840
  473   3 Pt  78      -6.870000   13.640001   24.418001      10.0000    195.0840
  474   3 Pt  78      -4.150000   13.710001   24.338001      10.0000    195.0840
  475   3 Pt  78      -1.310000   13.630000   24.498001      10.0000    195.0840
  476   3 Pt  78       1.520000   13.670001   24.618001      10.0000    195.0840
  477   3 Pt  78       4.340000   13.520001   24.568001      10.0000    195.0840
  478   3 Pt  78      -8.270000   14.280001   26.778001      10.0000    195.0840
  479   3 Pt  78      -5.590000   14.390000   26.868000      10.0000    195.0840
  480   3 Pt  78      -2.800000   14.480001   26.668001      10.0000    195.0840
  481   3 Pt  78       0.100000   14.530001   26.828000      10.0000    195.0840
  482   3 Pt  78       2.870000   14.360001   26.818001      10.0000    195.0840
  483   3 Pt  78       5.840001   14.440001   26.798001      10.0000    195.0840
  484   3 Pt  78       1.520000    2.300000   26.778001      10.0000    195.0840
  485   3 Pt  78       4.260000    2.300000   26.848001      10.0000    195.0840
  486   3 Pt  78       7.080000    2.260000   26.848001      10.0000    195.0840
  487   3 Pt  78       9.820001    2.270000   26.728000      10.0000    195.0840
  488   3 Pt  78      12.610001    2.240000   26.858001      10.0000    195.0840
  489   3 Pt  78      -1.250000    2.190000   26.918001      10.0000    195.0840
  490   3 Pt  78       2.860000    4.680000   26.798001      10.0000    195.0840
  491   3 Pt  78       5.730000    4.610000   27.088001      10.0000    195.0840
  492   3 Pt  78       8.560000    4.640000   26.938001      10.0000    195.0840
  493   3 Pt  78      11.310000    4.630000   27.078001      10.0000    195.0840
  494   3 Pt  78      -2.800000    4.570000   26.818001      10.0000    195.0840
  495   3 Pt  78      -0.110000    4.560000   26.868000      10.0000    195.0840
  496   3 Pt  78       4.310000    7.070000   26.648001      10.0000    195.0840
  497   3 Pt  78       7.270000    7.090001   26.878001      10.0000    195.0840
  498   3 Pt  78      10.060000    7.090001   26.798001      10.0000    195.0840
  499   3 Pt  78      -4.170000    7.090001   26.708001      10.0000    195.0840
  500   3 Pt  78      -1.470000    7.140000   26.738000      10.0000    195.0840
  501   3 Pt  78       1.450000    7.050000   26.668001      10.0000    195.0840
  502   3 Pt  78       5.860000    9.500000   26.878001      10.0000    195.0840
  503   3 Pt  78       8.720000    9.430000   26.868000      10.0000    195.0840
  504   3 Pt  78      -5.500000    9.500000   26.748001      10.0000    195.0840
  505   3 Pt  78      -2.710000    9.510000   26.758001      10.0000    195.0840
[...]
 flops    13 x    13 x   120           5547472320       0.0%    100.0%      0.0%
 flops    13 x    32 x    13           5756545600       0.0%    100.0%      0.0%
 flops     5 x     5 x    96           5860636800       0.0%    100.0%      0.0%
 flops    13 x     5 x    96           7421905920       0.0%    100.0%      0.0%
 flops     5 x    13 x    96           7428096000       0.0%    100.0%      0.0%
 flops    13 x    20 x   120           8056776000       0.0%    100.0%      0.0%
 flops    20 x    13 x   120           8070316800       0.0%    100.0%      0.0%
 flops    13 x    32 x    20           8462388480       0.0%    100.0%      0.0%
 flops    20 x    32 x    13           8462388480       0.0%    100.0%      0.0%
 flops     5 x    20 x   120           8629656000       0.0%    100.0%      0.0%
 flops    20 x     5 x   120           8634864000       0.0%    100.0%      0.0%
 flops    13 x    13 x    96           8875955712       0.0%    100.0%      0.0%
 flops     5 x    32 x    20           9059232000       0.0%    100.0%      0.0%
 flops    20 x    32 x     5           9059232000       0.0%    100.0%      0.0%
 flops    13 x    20 x    96          12890841600       0.0%    100.0%      0.0%
 flops    20 x    13 x    96          12912506880       0.0%    100.0%      0.0%
 flops     5 x    20 x    96          13807449600       0.0%    100.0%      0.0%
 flops    20 x     5 x    96          13815782400       0.0%    100.0%      0.0%
 flops     5 x     5 x   128          50792185600       0.0%    100.0%      0.0%
 flops    13 x     5 x   128          64323184640       0.0%    100.0%      0.0%
 flops     5 x    13 x   128          64376832000       0.0%    100.0%      0.0%
 flops    20 x    20 x   120          69745536000       0.0%    100.0%      0.0%
 flops    20 x    32 x    20          72858009600       0.0%    100.0%      0.0%
 flops    13 x    13 x   128          76924949504       0.0%    100.0%      0.0%
 flops    20 x    20 x    96         111592857600       0.0%    100.0%      0.0%
 flops    13 x    20 x   128         111720627200       0.0%    100.0%      0.0%
 flops    20 x    13 x   128         111908392960       0.0%    100.0%      0.0%
 flops     5 x    20 x   128         119664563200       0.0%    100.0%      0.0%
 flops    20 x     5 x   128         119736780800       0.0%    100.0%      0.0%
 flops    20 x    20 x   128         967138099200       0.0%    100.0%      0.0%
 flops inhomo. stacks                           0       0.0%      0.0%      0.0%
 flops total                         2.131608E+12       0.0%    100.0%      0.0%
 flops max/rank                     18.773087E+09       0.0%    100.0%      0.0%
 matmuls inhomo. stacks                         0       0.0%      0.0%      0.0%
 matmuls total                           60898694       0.0%    100.0%      0.0%
 number of processed stacks                591925       0.0%    100.0%      0.0%
 average stack size                                     0.0     102.9       0.0
 marketing flops                     4.317922E+12
 -------------------------------------------------------------------------------
 # multiplications                             32
 max memory usage/rank               1.601524E+09
 # max total images/rank                        2
 # max 3D layers                                1
 # MPI messages exchanged                  118784
 MPI messages size (bytes):
  total size                        75.763163E+09
  min size                         272.640000E+03
  max size                           2.379688E+06
  average size                     637.822938E+03
 MPI breakdown and total messages size (bytes):
             size <=      128                   0                        0
       128 < size <=     8192                   0                        0
      8192 < size <=    32768                   0                        0
     32768 < size <=   131072                   0                        0
    131072 < size <=  4194304              118784              75763163064
   4194304 < size <= 16777216                   0                        0
  16777216 < size                               0                        0
 -------------------------------------------------------------------------------

 *** WARNING in dbcsr_mm.F:290 :: Using a non-square number of MPI ranks ***
 *** might lead to poor performance. Used ranks: 128 Suggested: 121 256  ***

 -------------------------------------------------------------------------------
 -                                                                             -
 -                      DBCSR MESSAGE PASSING PERFORMANCE                      -
 -                                                                             -
 -------------------------------------------------------------------------------
 ROUTINE             CALLS      AVE VOLUME [Bytes]
 MP_Bcast               46                     12.
 MP_Allreduce          327                     14.
 MP_Alltoall           889                 583639.
 MP_ISend             2048                 302864.
 MP_IRecv             2048                 296409.
 -------------------------------------------------------------------------------

 -------------------------------------------------------------------------------
 -                                                                             -
 -                                DBM STATISTICS                               -
 -                                                                             -
 -------------------------------------------------------------------------------
    M  x    N  x    K                                          COUNT     PERCENT
 -------------------------------------------------------------------------------

 -------------------------------------------------------------------------------
 -                                                                             -
 -                                GRID STATISTICS                              -
 -                                                                             -
 -------------------------------------------------------------------------------
 LP    KERNEL             BACKEND                              COUNT     PERCENT
 4     collocate general  REF                               12167460      22.26%
 4     integrate general  REF                               12042277      22.03%
 3     collocate general  REF                                8411970      15.39%
 3     integrate general  REF                                8352106      15.28%
 2     collocate general  REF                                6616050      12.11%
 2     integrate general  REF                                6395515      11.70%
 5     integrate general  REF                                 405582       0.74%
 0     collocate general  REF                                 131328       0.24%
 0     integrate general  REF                                  65664       0.12%
 1     integrate general  REF                                  65664       0.12%
 -------------------------------------------------------------------------------

 MEMORY| Estimated peak process memory [MiB]                                1787

 -------------------------------------------------------------------------------
 ----                             MULTIGRID INFO                            ----
 -------------------------------------------------------------------------------
 count for grid        1:        1095229          cutoff [a.u.]          200.00
 count for grid        2:        1090002          cutoff [a.u.]           66.67
 count for grid        3:         713957          cutoff [a.u.]           22.22
 count for grid        4:         552681          cutoff [a.u.]            7.41
 total gridlevel count  :        3451869

 -------------------------------------------------------------------------------
 -                                                                             -
 -                         MESSAGE PASSING PERFORMANCE                         -
 -                                                                             -
 -------------------------------------------------------------------------------

 ROUTINE             CALLS      AVE VOLUME [Bytes]
 MP_Group                4
 MP_Bcast             2178                 309640.
 MP_Allreduce         3195                  33770.
 MP_Sync                66
 MP_Alltoall          1822               15665010.
 MP_SendRecv           508                   6273.
 MP_ISendRecv        15240                  61740.
 MP_Wait             27144
 MP_comm_split          31
 MP_ISend            11224                 256278.
 MP_IRecv            11224                 256278.
 MP_Recv               122                1688832.
 MP_Write_All            3                1797408.
 -------------------------------------------------------------------------------


 -------------------------------------------------------------------------------
 -                                                                             -
 -                           R E F E R E N C E S                               -
 -                                                                             -
 -------------------------------------------------------------------------------
 
 CP2K version 2022.1, the CP2K developers group (2022).
 CP2K is freely available from https://www.cp2k.org/ .

 Kuehne,Thomas D.; Iannuzzi,Marcella; Del Ben,Mauro;
 Rybkin,Vladimir V.; Seewald,Patrick; Stein,Frederick; Laino,Teodoro;
 Khaliullin,Rustam Z.; Schuett,Ole; Schiffmann,Florian; Golze,Dorothea;
 Wilhelm,Jan; Chulkov,Sergey; Bani-Hashemian,Mohammad Hossein;
 Weber,Valery; Borstnik,Urban; Taillefumier,Mathieu;
 Jakobovits,Alice Shoshana; Lazzaro,Alfio; Pabst,Hans; Mueller,Tiziano;
 Schade,Robert; Guidon,Manuel; Andermatt,Samuel; Holmberg,Nico;
 Schenter,Gregory K.; Hehn,Anna; Bussy,Augustin; Belleflamme,Fabian;
 Tabacchi,Gloria; Gloess,Andreas; Lass,Michael; Bethune,Iain;
 Mundy,Christopher J.; Plessl,Christian; Watkins,Matt;
 VandeVondele,Joost; Krack,Matthias; Hutter,Juerg. 
 The Journal of Chemical Physics, 152 (19), (2020). 
 CP2K: An electronic structure and molecular dynamics software package -
 Quickstep: Efficient and accurate electronic structure calculations.
 https://doi.org/10.1063/5.0007045

 Goerigk, Lars; Hansen, Andreas; Bauer, Christoph; Ehrlich, Stephan;
 Najibi, Asim; Grimme, Stefan. , 19 (48), (2017). 
 A look at the density functional theory zoo with the advanced GMTKN55 database
 for general main group thermochemistry, kinetics and noncovalent interactions.
 https://doi.org/10.1039/C7CP04913G

 Bani-Hashemian, MH; Bruck, S; Luisier, M; VandeVondele, J. 
 JOURNAL OF CHEMICAL PHYSICS, 144 (4), 044113 (2016). 
 A generalized Poisson solver for first-principles device simulations.
 https://doi.org/10.1063/1.4940796

 Schuett, Ole; Messmer, Peter; Hutter, Juerg; VandeVondele, Joost. 
 Electronic Structure Calculations on Graphics Processing Units, John
 Wiley & Sons, Ltd, 173-190 (2016). 
 GPU-Accelerated Sparse Matrix-Matrix Multiplication for
 Linear Scaling Density Functional Theory.
 https://doi.org/10.1002/9781118670712.ch8

 Heinecke, A; Henry, G; Hutchinson, M; Pabst, H. 
 Proceedings of Intl. Supercomputing Conference, 981-991 (2016). 
 LIBXSMM: Accelerating Small Matrix Multiplications
 by Runtime Code Generation.
 https://doi.org/10.1109/SC.2016.83

 Borstnik, U; VandeVondele, J; Weber, V; Hutter, J. 
 PARALLEL COMPUTING, 40 (5-6), 47-58 (2014). 
 Sparse matrix multiplication: The distributed block-compressed sparse
 row library.
 https://doi.org/10.1016/j.parco.2014.03.012

 Hutter, J; Iannuzzi, M; Schiffmann, F; VandeVondele, J. 
 WIREs Comput Mol Sci., 4 (1), 15-25 (2014). 
 CP2K: atomistic simulations of condensed matter systems.
 https://doi.org/10.1002/wcms.1159

 Marek, A; Blum, V; Johanni, R; Havu, V; Lang, B; Auckenthaler, T;
 Heinecke, A; Bungartz, H; Lederer, H. 
 Journal of Physics: Condensed Matter, 26 (21), (2014). 
 The ELPA library: scalable parallel eigenvalue solutions for
 electronic structure
 theory and computational science.
 https://doi.org/10.1088/0953-8984/26/21/213201

 Grimme, S; Ehrlich, S; Goerigk, L. 
 JOURNAL OF COMPUTATIONAL CHEMISTRY, 32, 1456 (2011). 
 Effect of the damping function in dispersion corrected density functional theory.
 https://doi.org/10.1002/jcc.21759

 Grimme, S; Antony, J; Ehrlich, S; Krieg, H. 
 JOURNAL OF CHEMICAL PHYSICS, 132 (15), 154104 (2010). 
 A consistent and accurate ab initio parametrization of density
 functional dispersion correction (DFT-D) for the 94 elements H-Pu.
 https://doi.org/10.1063/1.3382344

 VandeVondele, J; Hutter, J. 
 JOURNAL OF CHEMICAL PHYSICS, 127 (11), 114105 (2007). 
 Gaussian basis sets for accurate calculations on molecular systems in
 gas and condensed phases.
 https://doi.org/10.1063/1.2770708

 Krack, M. 
 THEORETICAL CHEMISTRY ACCOUNTS, 114 (1-3), 145-152 (2005). 
 Pseudopotentials for H to Kr optimized for gradient-corrected
 exchange-correlation functionals.
 https://doi.org/10.1007/s00214-005-0655-y

 VandeVondele, J; Krack, M; Mohamed, F; Parrinello, M; Chassaing, T;
 Hutter, J. COMPUTER PHYSICS COMMUNICATIONS, 167 (2), 103-128 (2005). 
 QUICKSTEP: Fast and accurate density functional calculations using a
 mixed Gaussian and plane waves approach.
 https://doi.org/10.1016/j.cpc.2004.12.014

 Frigo, M; Johnson, SG. 
 PROCEEDINGS OF THE IEEE, 93 (2), 216-231 (2005). 
 The design and implementation of FFTW3.
 https://doi.org/10.1109/JPROC.2004.840301

 Hartwigsen, C; Goedecker, S; Hutter, J. 
 PHYSICAL REVIEW B, 58 (7), 3641-3662 (1998). 
 Relativistic separable dual-space Gaussian pseudopotentials from H to Rn.
 https://doi.org/10.1103/PhysRevB.58.3641

 Lippert, G; Hutter, J; Parrinello, M. 
 MOLECULAR PHYSICS, 92 (3), 477-487 (1997). 
 A hybrid Gaussian and plane wave density functional scheme.
 https://doi.org/10.1080/002689797170220

 Perdew, JP; Burke, K; Ernzerhof, M. 
 PHYSICAL REVIEW LETTERS, 77 (18), 3865-3868 (1996). 
 Generalized gradient approximation made simple.
 https://doi.org/10.1103/PhysRevLett.77.3865

 Goedecker, S; Teter, M; Hutter, J. 
 PHYSICAL REVIEW B, 54 (3), 1703-1710 (1996). 
 Separable dual-space Gaussian pseudopotentials.
 https://doi.org/10.1103/PhysRevB.54.1703


 -------------------------------------------------------------------------------
 -                                                                             -
 -                                T I M I N G                                  -
 -                                                                             -
 -------------------------------------------------------------------------------
 SUBROUTINE                       CALLS  ASD         SELF TIME        TOTAL TIME
                                MAXIMUM       AVERAGE  MAXIMUM  AVERAGE  MAXIMUM
 CP2K                                 1  1.0    0.380    0.391  217.028  217.029
 qs_forces                            1  2.0    0.002    0.002  216.234  216.235
 qs_energies                          1  3.0    0.000    0.000  209.971  209.974
 scf_env_do_scf                       1  4.0    0.000    0.000  200.596  200.746
 scf_env_do_scf_inner_loop           29  5.0    0.002    0.005  200.592  200.742
 rebuild_ks_matrix                   30  6.9    0.000    0.000  109.240  109.272
 qs_ks_build_kohn_sham_matrix        30  7.9    0.005    0.005  109.240  109.272
 qs_ks_update_qs_env                 29  6.0    0.000    0.000  105.144  105.176
 pw_transfer                       1564 12.2    0.114    0.143   68.624   70.082
 fft_wrap_pw1pw2                   1564 13.2    0.015    0.034   68.510   69.942
 fft_wrap_pw1pw2_200               1384 14.4    4.611    5.458   67.589   68.942
 pw_poisson_solve                    30  8.9    0.003    0.007   58.707   58.728
 qs_scf_new_mos                      29  6.0    0.001    0.004   57.313   57.395
 fft3d_ps                          1564 15.2   19.649   21.856   55.108   57.322
 implicit_poisson_solver_mixed_      30  9.9    1.243    1.508   55.424   55.498
 eigensolver                         29  7.0    0.002    0.003   54.016   54.194
 derive_fft                         180 12.1    0.011    0.013   38.928   39.044
 cp_fm_diag_elpa                     31  8.1    0.000    0.001   38.505   38.607
 cp_fm_redistribute_end              31  9.1    5.134   38.131    5.191   38.172
 cp_fm_diag_elpa_base                31  9.0   32.483   37.317   32.792   37.620
 mp_alltoall_z22v                  1564 17.2   29.743   36.798   29.743   36.798
 qs_rho_update_rho_low               30  6.0    0.000    0.000   34.425   34.433
 calculate_rho_elec                  30  7.0    0.058    0.073   34.424   34.433
 sum_up_and_integrate                30  8.9    0.163    0.199   33.942   33.984
 integrate_v_rspace                  30  9.9    0.001    0.002   33.779   33.865
 apply_P_operator                   150 11.1    0.801    0.887   33.303   33.411
 grid_collocate_task_list            30  8.0   21.752   27.209   21.752   27.209
 grid_integrate_task_list            30 10.9   20.275   24.878   20.275   24.878
 x_to_yz                            901 16.4    3.808    4.846   22.615   23.571
 rs_pw_transfer                     244 10.4    0.003    0.003   15.803   19.139
 cp_fm_triangular_multiply           87  8.0   17.072   17.249   17.072   17.249
 yz_to_x                            483 16.4    1.315    1.527   12.138   16.494
 density_rs2pw                       30  8.0    0.002    0.002   11.966   15.382
 qs_vxc_create                       30  8.9    0.001    0.001   14.821   15.005
 xc_vxc_pw_create                    30  9.9    0.257    0.314   14.820   15.004
 xc_pw_derive                       180 11.9    0.003    0.003   10.448   11.573
 mp_waitany                       11224 12.3    7.501   10.939    7.501   10.939
 rs_pw_transfer_RS2PW_200            32  9.9    2.057    2.284    7.570   10.905
 apply_poisson_operator_fft          30 10.9    0.000    0.000    9.712    9.889
 apply_inv_laplace_operator_fft      92 11.6    0.229    0.261    8.973    9.289
 mp_alltoall_d11v                   442 10.3    5.936    9.135    5.936    9.135
 potential_pw2rs                     30 10.9    0.009    0.010    8.525    8.590
 rs_gather_matrices                  30 10.9    0.037    0.046    4.967    8.105
 xc_pw_divergence                    30 10.9    0.001    0.002    7.053    7.906
 xc_rho_set_and_dset_create          30 10.9    0.149    0.184    7.259    7.692
 ps_implicit_compute_error_fft       60 10.9    0.377    0.457    6.592    7.061
 ps_implicit_compute_veps            30 10.9    0.174    0.205    6.603    6.727
 pw_scatter_p                       991 15.3    5.587    6.539    5.587    6.539
 scf_post_calculation_gpw             1  4.0    0.000    0.001    5.929    5.935
 write_available_results              1  5.0    0.000    0.000    5.929    5.935
 rs_pw_transfer_PW2RS_200            32 12.6    2.414    2.561    5.045    5.164
 pw_derive                          720 13.0    4.574    4.874    4.574    4.874
 gspace_mixing                       28  6.0    0.054    0.066    4.673    4.674
 -------------------------------------------------------------------------------

 The number of warnings for this run is : 1
 
 -------------------------------------------------------------------------------
  **** **** ******  **  PROGRAM ENDED AT                 2023-12-02 04:28:42.923
 ***** ** ***  *** **   PROGRAM RAN ON                                     cu054
 **    ****   ******    PROGRAM RAN BY                                     jxzhu
 ***** **    ** ** **   PROGRAM PROCESS ID                                 15535
  **** **  *******  **  PROGRAM STOPPED IN /public/home/jxzhu/tmp_calc/62d0d4306
                                           56aad471219d174804c609a3b336b00/calc/
                                           000700.000/search_lo.000000
