 DBCSR| CPU Multiplication driver                                           XSMM
 DBCSR| Multrec recursion limit                                              512
 DBCSR| Multiplication stack size                                           1000
 DBCSR| Maximum elements for images                                    UNLIMITED
 DBCSR| Multiplicative factor virtual images                                   1
 DBCSR| Use multiplication densification                                       T
 DBCSR| Multiplication size stacks                                             3
 DBCSR| Use memory pool for CPU allocation                                     F
 DBCSR| Number of 3D layers                                               SINGLE
 DBCSR| Use MPI memory allocation                                              F
 DBCSR| Use RMA algorithm                                                      F
 DBCSR| Use Communication thread                                               T
 DBCSR| Communication thread load                                             87
 DBCSR| MPI: My node id                                                        0
 DBCSR| MPI: Number of nodes                                                  64
 DBCSR| OMP: Current number of threads                                         1
 DBCSR| OMP: Max number of threads                                             1
 DBCSR| Split modifier for TAS multiplication algorithm                  1.0E+00


  **** **** ******  **  PROGRAM STARTED AT               2023-11-26 17:54:44.827
 ***** ** ***  *** **   PROGRAM STARTED ON                                 cu054
 **    ****   ******    PROGRAM STARTED BY                                 jxzhu
 ***** **    ** ** **   PROGRAM PROCESS ID                                 49867
  **** **  *******  **  PROGRAM STARTED IN /public/home/jxzhu/tmp_calc/af2075565
                                           805657d94fa4669dad6f4b174b0a4fb/calc/
                                           001700.000/pbc

 CP2K| version string:                                       CP2K version 2022.1
 CP2K| source code revision number:                                  git:2caeb6f
 CP2K| cp2kflags: omp libint fftw3 libxc elpa parallel mpi3 scalapack cosma xsmm
 CP2K|             plumed2 spglib mkl sirius libvori libbqb
 CP2K| is freely available from                            https://www.cp2k.org/
 CP2K| Program compiled at                           Mon Jul 3 17:37:06 CST 2023
 CP2K| Program compiled on                                                 mu003
 CP2K| Program compiled for                                                local
 CP2K| Data directory path                             /public/home/jxzhu/basis/
 CP2K| Input file name                                                 input.inp
 
 GLOBAL| Force Environment number                                              1
 GLOBAL| Basis set file name                                        BASIS_MOLOPT
 GLOBAL| Potential file name                                      GTH_POTENTIALS
 GLOBAL| MM Potential file name                                     MM_POTENTIAL
 GLOBAL| Coordinate file name                                          coord.xyz
 GLOBAL| Method name                                                        CP2K
 GLOBAL| Project name                                                       cp2k
 GLOBAL| Run type                                                   ENERGY_FORCE
 GLOBAL| FFT library                                                       FFTW3
 GLOBAL| Diagonalization library                                            ELPA
 GLOBAL| Minimum number of eigenvectors for ELPA usage                        16
 GLOBAL| Orthonormality check for eigenvectors                          DISABLED
 GLOBAL| Matrix multiplication library                                     COSMA
 GLOBAL| All-to-all communication in single precision                          F
 GLOBAL| FFTs using library dependent lengths                                  F
 GLOBAL| Grid backend                                                       AUTO
 GLOBAL| Global print level                                               MEDIUM
 GLOBAL| MPI I/O enabled                                                       T
 GLOBAL| Total number of message passing processes                            64
 GLOBAL| Number of threads for this process                                    1
 GLOBAL| This output is from process                                           0
 GLOBAL| Stack size for threads created by OpenMP (OMP_STACKSIZE)        default
 GLOBAL| CPU model name                 Intel(R) Xeon(R) Gold 6338 CPU @ 2.00GHz
 GLOBAL| CPUID                                                              1003

 MEMORY| system memory details [Kb]
 MEMORY|                        rank 0           min           max       average
 MEMORY| MemTotal            263619172     263619172     263619172     263619172
 MEMORY| MemFree             210075792     210075792     210078272     210076043
 MEMORY| Buffers                  3320          3320          3320          3320
 MEMORY| Cached                4627808       4627808       4627808       4627808
 MEMORY| Slab                  1857912       1857912       1857912       1857912
 MEMORY| SReclaimable           245496        245496        245496        245496
 MEMORY| MemLikelyFree       214952416     214952416     214954896     214952667


 *** Fundamental physical constants (SI units) ***

 *** Literature: B. J. Mohr and B. N. Taylor,
 ***             CODATA recommended values of the fundamental physical
 ***             constants: 2006, Web Version 5.1
 ***             http://physics.nist.gov/constants

 Speed of light in vacuum [m/s]                             2.99792458000000E+08
 Magnetic constant or permeability of vacuum [N/A**2]       1.25663706143592E-06
 Electric constant or permittivity of vacuum [F/m]          8.85418781762039E-12
 Planck constant (h) [J*s]                                  6.62606896000000E-34
 Planck constant (h-bar) [J*s]                              1.05457162825177E-34
 Elementary charge [C]                                      1.60217648700000E-19
 Electron mass [kg]                                         9.10938215000000E-31
 Electron g factor [ ]                                     -2.00231930436220E+00
 Proton mass [kg]                                           1.67262163700000E-27
 Fine-structure constant                                    7.29735253760000E-03
 Rydberg constant [1/m]                                     1.09737315685270E+07
 Avogadro constant [1/mol]                                  6.02214179000000E+23
 Boltzmann constant [J/K]                                   1.38065040000000E-23
 Atomic mass unit [kg]                                      1.66053878200000E-27
 Bohr radius [m]                                            5.29177208590000E-11

 *** Conversion factors ***

 [u] -> [a.u.]                                              1.82288848426455E+03
 [Angstrom] -> [Bohr] = [a.u.]                              1.88972613288564E+00
 [a.u.] = [Bohr] -> [Angstrom]                              5.29177208590000E-01
 [a.u.] -> [s]                                              2.41888432650478E-17
 [a.u.] -> [fs]                                             2.41888432650478E-02
 [a.u.] -> [J]                                              4.35974393937059E-18
 [a.u.] -> [N]                                              8.23872205491840E-08
 [a.u.] -> [K]                                              3.15774647902944E+05
 [a.u.] -> [kJ/mol]                                         2.62549961709828E+03
 [a.u.] -> [kcal/mol]                                       6.27509468713739E+02
 [a.u.] -> [Pa]                                             2.94210107994716E+13
 [a.u.] -> [bar]                                            2.94210107994716E+08
 [a.u.] -> [atm]                                            2.90362800883016E+08
 [a.u.] -> [eV]                                             2.72113838565563E+01
 [a.u.] -> [Hz]                                             6.57968392072181E+15
 [a.u.] -> [1/cm] (wave numbers)                            2.19474631370540E+05
 [a.u./Bohr**2] -> [1/cm]                                   5.14048714338585E+03
 

 CELL_TOP| Volume [angstrom^3]:                                     10221.806009
 CELL_TOP| Vector a [angstrom    16.869     0.000     0.000   |a| =    16.869000
 CELL_TOP| Vector b [angstrom    -8.434    14.609     0.000   |b| =    16.869015
 CELL_TOP| Vector c [angstrom     0.000     0.000    41.478   |c| =    41.478000
 CELL_TOP| Angle (b,c), alpha [degree]:                                90.000000
 CELL_TOP| Angle (a,c), beta  [degree]:                                90.000000
 CELL_TOP| Angle (a,b), gamma [degree]:                               119.999970
 CELL_TOP| Numerically orthorhombic:                                          NO
 
 GENERATE|  Preliminary Number of Bonds generated:                             0
 GENERATE|  Achieved consistency in connectivity generation.

 CELL| Volume [angstrom^3]:                                         10221.806009
 CELL| Vector a [angstrom]:      16.869     0.000     0.000   |a| =    16.869000
 CELL| Vector b [angstrom]:      -8.434    14.609     0.000   |b| =    16.869015
 CELL| Vector c [angstrom]:       0.000     0.000    41.478   |c| =    41.478000
 CELL| Angle (b,c), alpha [degree]:                                    90.000000
 CELL| Angle (a,c), beta  [degree]:                                    90.000000
 CELL| Angle (a,b), gamma [degree]:                                   119.999970
 CELL| Numerically orthorhombic:                                              NO

 CELL_REF| Volume [angstrom^3]:                                     10221.806009
 CELL_REF| Vector a [angstrom    16.869     0.000     0.000   |a| =    16.869000
 CELL_REF| Vector b [angstrom    -8.434    14.609     0.000   |b| =    16.869015
 CELL_REF| Vector c [angstrom     0.000     0.000    41.478   |c| =    41.478000
 CELL_REF| Angle (b,c), alpha [degree]:                                90.000000
 CELL_REF| Angle (a,c), beta  [degree]:                                90.000000
 CELL_REF| Angle (a,b), gamma [degree]:                               119.999970
 CELL_REF| Numerically orthorhombic:                                          NO

 *******************************************************************************
 *******************************************************************************
 **                                                                           **
 **     #####                         ##              ##                      **
 **    ##   ##            ##          ##              ##                      **
 **   ##     ##                       ##            ######                    **
 **   ##     ##  ##   ##  ##   #####  ##  ##   ####   ##    #####    #####    **
 **   ##     ##  ##   ##  ##  ##      ## ##   ##      ##   ##   ##  ##   ##   **
 **   ##  ## ##  ##   ##  ##  ##      ####     ###    ##   ######   ######    **
 **    ##  ###   ##   ##  ##  ##      ## ##      ##   ##   ##       ##        **
 **     #######   #####   ##   #####  ##  ##  ####    ##    #####   ##        **
 **           ##                                                    ##        **
 **                                                                           **
 **                                                ... make the atoms dance   **
 **                                                                           **
 **            Copyright (C) by CP2K developers group (2000-2022)             **
 **                      J. Chem. Phys. 152, 194103 (2020)                    **
 **                                                                           **
 *******************************************************************************

 DFT| Spin restricted Kohn-Sham (RKS) calculation                            RKS
 DFT| Multiplicity                                                             1
 DFT| Number of spin states                                                    1
 DFT| Charge                                                                   0
 DFT| Self-interaction correction (SIC)                                       NO
 DFT| Cutoffs: density                                              1.000000E-10
 DFT|          gradient                                             1.000000E-10
 DFT|          tau                                                  1.000000E-10
 DFT|          cutoff_smoothing_range                               0.000000E+00
 DFT| XC density smoothing                                                  NONE
 DFT| XC derivatives                                                          PW

 FUNCTIONAL| PBE:
 FUNCTIONAL| J.P.Perdew, K.Burke, M.Ernzerhof, Phys. Rev. Letter, vol. 77, n 18,
 FUNCTIONAL|  pp. 3865-3868, (1996){spin unpolarized}                           

 vdW POTENTIAL|                                                   Pair Potential
 vdW POTENTIAL|          DFT-D3 (Version 3.1)
 vdW POTENTIAL|          Potential Form: S. Grimme et al, JCP 132: 154104 (2010)
 vdW POTENTIAL|          Zero Damping
 vdW POTENTIAL|          Cutoff Radius [Bohr]:                             20.00
 vdW POTENTIAL|          s6 Scaling Factor:                               1.0000
 vdW POTENTIAL|          sr6 Scaling Factor:                              1.2170
 vdW POTENTIAL|          s8 Scaling Factor:                               0.7220
 vdW POTENTIAL|          Cutoff for CN calculation:                   0.1000E-05

 QS| Method:                                                                 GPW
 QS| Density plane wave grid type                        NON-SPHERICAL FULLSPACE
 QS| Number of grid levels:                                                    4
 QS| Density cutoff [a.u.]:                                                200.0
 QS| Multi grid cutoff [a.u.]: 1) grid level                               200.0
 QS|                           2) grid level                                66.7
 QS|                           3) grid level                                22.2
 QS|                           4) grid level                                 7.4
 QS| Grid level progression factor:                                          3.0
 QS| Relative density cutoff [a.u.]:                                        20.0
 QS| Interaction thresholds: eps_pgf_orb:                                3.2E-07
 QS|                         eps_filter_matrix:                          0.0E+00
 QS|                         eps_core_charge:                            1.0E-15
 QS|                         eps_rho_gspace:                             1.0E-13
 QS|                         eps_rho_rspace:                             1.0E-13
 QS|                         eps_gvg_rspace:                             3.2E-07
 QS|                         eps_ppl:                                    1.0E-02
 QS|                         eps_ppnl:                                   3.2E-09


 ATOMIC KIND INFORMATION

  1. Atomic kind: O                                     Number of atoms:     230

     Orbital Basis Set                                        DZVP-MOLOPT-SR-GTH

       Number of orbital shell sets:                                           1
       Number of orbital shells:                                               5
       Number of primitive Cartesian functions:                                5
       Number of Cartesian basis functions:                                   14
       Number of spherical basis functions:                                   13
       Norm type:                                                              2

       Normalised Cartesian orbitals:

                        Set   Shell   Orbital            Exponent    Coefficient

                          1       1    2s               10.389228       0.396646
                                                         3.849621       0.208811
                                                         1.388401      -0.301641
                                                         0.496955      -0.274061
                                                         0.162492      -0.033677

                          1       2    3s               10.389228       0.303673
                                                         3.849621       0.240943
                                                         1.388401      -0.313066
                                                         0.496955      -0.043055
                                                         0.162492       0.213991

                          1       3    3px              10.389228      -1.530415
                                                         3.849621      -1.371928
                                                         1.388401      -0.761951
                                                         0.496955      -0.253695
                                                         0.162492      -0.035541
                          1       3    3py              10.389228      -1.530415
                                                         3.849621      -1.371928
                                                         1.388401      -0.761951
                                                         0.496955      -0.253695
                                                         0.162492      -0.035541
                          1       3    3pz              10.389228      -1.530415
                                                         3.849621      -1.371928
                                                         1.388401      -0.761951
                                                         0.496955      -0.253695
                                                         0.162492      -0.035541

                          1       4    4px              10.389228      -0.565392
                                                         3.849621      -0.038231
                                                         1.388401      -0.382373
                                                         0.496955       0.179070
                                                         0.162492       0.122714
                          1       4    4py              10.389228      -0.565392
                                                         3.849621      -0.038231
                                                         1.388401      -0.382373
                                                         0.496955       0.179070
                                                         0.162492       0.122714
                          1       4    4pz              10.389228      -0.565392
                                                         3.849621      -0.038231
                                                         1.388401      -0.382373
                                                         0.496955       0.179070
                                                         0.162492       0.122714

                          1       5    4dx2             10.389228       1.867377
                                                         3.849621       0.670994
                                                         1.388401       1.353441
                                                         0.496955       0.273538
                                                         0.162492       0.006620
                          1       5    4dxy             10.389228       3.234392
                                                         3.849621       1.162195
                                                         1.388401       2.344229
                                                         0.496955       0.473781
                                                         0.162492       0.011466
                          1       5    4dxz             10.389228       3.234392
                                                         3.849621       1.162195
                                                         1.388401       2.344229
                                                         0.496955       0.473781
                                                         0.162492       0.011466
                          1       5    4dy2             10.389228       1.867377
                                                         3.849621       0.670994
                                                         1.388401       1.353441
                                                         0.496955       0.273538
                                                         0.162492       0.006620
                          1       5    4dyz             10.389228       3.234392
                                                         3.849621       1.162195
                                                         1.388401       2.344229
                                                         0.496955       0.473781
                                                         0.162492       0.011466
                          1       5    4dz2             10.389228       1.867377
                                                         3.849621       0.670994
                                                         1.388401       1.353441
                                                         0.496955       0.273538
                                                         0.162492       0.006620

       Atomic covalent radius [Angstrom]:                                  0.730

       Atomic van der Waals radius [Angstrom]:                             1.520

     GTH Potential information for                                    GTH-PBE-q6

       Description:                       Goedecker-Teter-Hutter pseudopotential
                                           Goedecker et al., PRB 54, 1703 (1996)
                                          Hartwigsen et al., PRB 58, 3641 (1998)
                                                      Krack, TCA 114, 145 (2005)

       Gaussian exponent of the core charge distribution:               8.360253
       Electronic configuration (s p d ...):                               2   4

       Parameters of the local part of the GTH pseudopotential:

                          rloc        C1          C2          C3          C4
                        0.244554  -16.667215    2.487311

       Parameters of the non-local part of the GTH pseudopotential:

                   l      r(l)      h(i,j,l)

                   0    0.220956   18.337458
                   1    0.211332

  2. Atomic kind: H                                     Number of atoms:     460

     Orbital Basis Set                                        DZVP-MOLOPT-SR-GTH

       Number of orbital shell sets:                                           1
       Number of orbital shells:                                               3
       Number of primitive Cartesian functions:                                5
       Number of Cartesian basis functions:                                    5
       Number of spherical basis functions:                                    5
       Norm type:                                                              2

       Normalised Cartesian orbitals:

                        Set   Shell   Orbital            Exponent    Coefficient

                          1       1    2s               10.068468      -0.133023
                                                         2.680223      -0.177618
                                                         0.791502      -0.258419
                                                         0.239116      -0.107525
                                                         0.082193      -0.014019

                          1       2    3s               10.068468       0.344673
                                                         2.680223       1.819821
                                                         0.791502      -0.999069
                                                         0.239116       0.017430
                                                         0.082193       0.082660

                          1       3    3px              10.068468       0.155326
                                                         2.680223       0.367157
                                                         0.791502       0.311480
                                                         0.239116       0.080105
                                                         0.082193       0.033440
                          1       3    3py              10.068468       0.155326
                                                         2.680223       0.367157
                                                         0.791502       0.311480
                                                         0.239116       0.080105
                                                         0.082193       0.033440
                          1       3    3pz              10.068468       0.155326
                                                         2.680223       0.367157
                                                         0.791502       0.311480
                                                         0.239116       0.080105
                                                         0.082193       0.033440

       Atomic covalent radius [Angstrom]:                                  0.320

       Atomic van der Waals radius [Angstrom]:                             1.090

     GTH Potential information for                                    GTH-PBE-q1

       Description:                       Goedecker-Teter-Hutter pseudopotential
                                           Goedecker et al., PRB 54, 1703 (1996)
                                          Hartwigsen et al., PRB 58, 3641 (1998)
                                                      Krack, TCA 114, 145 (2005)

       Gaussian exponent of the core charge distribution:              12.500000
       Electronic configuration (s p d ...):                                   1

       Parameters of the local part of the GTH pseudopotential:

                          rloc        C1          C2          C3          C4
                        0.200000   -4.178900    0.724463

  3. Atomic kind: Pt                                    Number of atoms:     216

     Orbital Basis Set                      DZVP-A5-Q10-323-MOL-T1-DERIVED_SET-1

       Number of orbital shell sets:                                           1
       Number of orbital shells:                                               6
       Number of primitive Cartesian functions:                                5
       Number of Cartesian basis functions:                                   23
       Number of spherical basis functions:                                   20
       Norm type:                                                              2

       Normalised Cartesian orbitals:

                        Set   Shell   Orbital            Exponent    Coefficient

                          1       1    2s                2.521825       0.177473
                                                         1.453920      -0.063399
                                                         0.614053      -0.407089
                                                         0.232656       0.262254
                                                         0.074788       0.047371

                          1       2    3s                2.521825      -0.049056
                                                         1.453920       0.044904
                                                         0.614053      -0.009756
                                                         0.232656      -0.144709
                                                         0.074788       0.144085

                          1       3    3px               2.521825      -0.317572
                                                         1.453920       0.534826
                                                         0.614053      -0.489458
                                                         0.232656       0.245631
                                                         0.074788       0.018221
                          1       3    3py               2.521825      -0.317572
                                                         1.453920       0.534826
                                                         0.614053      -0.489458
                                                         0.232656       0.245631
                                                         0.074788       0.018221
                          1       3    3pz               2.521825      -0.317572
                                                         1.453920       0.534826
                                                         0.614053      -0.489458
                                                         0.232656       0.245631
                                                         0.074788       0.018221

                          1       4    4dx2              2.521825       3.008522
                                                         1.453920      -1.224251
                                                         0.614053       0.225691
                                                         0.232656       0.125144
                                                         0.074788      -0.015348
                          1       4    4dxy              2.521825       5.210912
                                                         1.453920      -2.120465
                                                         0.614053       0.390909
                                                         0.232656       0.216756
                                                         0.074788      -0.026584
                          1       4    4dxz              2.521825       5.210912
                                                         1.453920      -2.120465
                                                         0.614053       0.390909
                                                         0.232656       0.216756
                                                         0.074788      -0.026584
                          1       4    4dy2              2.521825       3.008522
                                                         1.453920      -1.224251
                                                         0.614053       0.225691
                                                         0.232656       0.125144
                                                         0.074788      -0.015348
                          1       4    4dyz              2.521825       5.210912
                                                         1.453920      -2.120465
                                                         0.614053       0.390909
                                                         0.232656       0.216756
                                                         0.074788      -0.026584
                          1       4    4dz2              2.521825       3.008522
                                                         1.453920      -1.224251
                                                         0.614053       0.225691
                                                         0.232656       0.125144
                                                         0.074788      -0.015348

                          1       5    5dx2              2.521825       0.698026
                                                         1.453920      -1.511486
                                                         0.614053      -0.335394
                                                         0.232656      -0.025564
                                                         0.074788      -0.002699
                          1       5    5dxy              2.521825       1.209017
                                                         1.453920      -2.617970
                                                         0.614053      -0.580920
                                                         0.232656      -0.044277
                                                         0.074788      -0.004674
                          1       5    5dxz              2.521825       1.209017
                                                         1.453920      -2.617970
                                                         0.614053      -0.580920
                                                         0.232656      -0.044277
                                                         0.074788      -0.004674
                          1       5    5dy2              2.521825       0.698026
                                                         1.453920      -1.511486
                                                         0.614053      -0.335394
                                                         0.232656      -0.025564
                                                         0.074788      -0.002699
                          1       5    5dyz              2.521825       1.209017
                                                         1.453920      -2.617970
                                                         0.614053      -0.580920
                                                         0.232656      -0.044277
                                                         0.074788      -0.004674
                          1       5    5dz2              2.521825       0.698026
                                                         1.453920      -1.511486
                                                         0.614053      -0.335394
                                                         0.232656      -0.025564
                                                         0.074788      -0.002699

                          1       6    6dx2              2.521825       0.831079
                                                         1.453920      -0.709226
                                                         0.614053      -0.137351
                                                         0.232656       0.068642
                                                         0.074788       0.011745
                          1       6    6dxy              2.521825       1.439472
                                                         1.453920      -1.228415
                                                         0.614053      -0.237899
                                                         0.232656       0.118891
                                                         0.074788       0.020343
                          1       6    6dxz              2.521825       1.439472
                                                         1.453920      -1.228415
                                                         0.614053      -0.237899
                                                         0.232656       0.118891
                                                         0.074788       0.020343
                          1       6    6dy2              2.521825       0.831079
                                                         1.453920      -0.709226
                                                         0.614053      -0.137351
                                                         0.232656       0.068642
                                                         0.074788       0.011745
                          1       6    6dyz              2.521825       1.439472
                                                         1.453920      -1.228415
                                                         0.614053      -0.237899
                                                         0.232656       0.118891
                                                         0.074788       0.020343
                          1       6    6dz2              2.521825       0.831079
                                                         1.453920      -0.709226
                                                         0.614053      -0.137351
                                                         0.232656       0.068642
                                                         0.074788       0.011745

       Atomic covalent radius [Angstrom]:                                  1.300

       Atomic van der Waals radius [Angstrom]:                             1.750

     GTH Potential information for                                   GTH-PBE-q10

       Description:                       Goedecker-Teter-Hutter pseudopotential
                                           Goedecker et al., PRB 54, 1703 (1996)
                                          Hartwigsen et al., PRB 58, 3641 (1998)
                                                      Krack, TCA 114, 145 (2005)

       Gaussian exponent of the core charge distribution:               1.317676
       Electronic configuration (s p d ...):                           1   0   9

       Parameters of the local part of the GTH pseudopotential:

                          rloc        C1          C2          C3          C4
                        0.616000   11.313635

       Parameters of the non-local part of the GTH pseudopotential:

                   l      r(l)      h(i,j,l)

                   0    0.550904    4.733491   -1.784594
                                   -1.784594    2.303901
                   1    0.674138    2.534798   -1.778066
                                   -1.778066    2.103836
                   2    0.457392   -7.264011    2.558665
                                    2.558665   -2.901253


 MOLECULE KIND INFORMATION


 All atoms are their own molecule, skipping detailed information


 TOTAL NUMBERS AND MAXIMUM NUMBERS

  Total number of            - Atomic kinds:                                   3
                             - Atoms:                                        906
                             - Shell sets:                                   906
                             - Shells:                                      3826
                             - Primitive Cartesian functions:               4530
                             - Cartesian basis functions:                  10488
                             - Spherical basis functions:                   9610

  Maximum angular momentum of- Orbital basis functions:                        2
                             - Local part of the GTH pseudopotential:          2
                             - Non-local part of the GTH pseudopotential:      4


 MODULE QUICKSTEP:  ATOMIC COORDINATES IN angstrom

 Atom  Kind  Element       X           Y           Z          Z(eff)       Mass
    1   1 O    8       1.810000  -12.120000    8.120001       6.0000     15.9994
    2   2 H    1       1.120000  -11.480000    8.470000       1.0000      1.0079
    3   2 H    1       1.740000  -13.000001    8.560000       1.0000      1.0079
    4   1 O    8       0.740000    0.170000   12.650002       6.0000     15.9994
    5   2 H    1       1.540000    0.640000   12.980001       1.0000      1.0079
    6   2 H    1       1.050000   -0.570000   12.020000       1.0000      1.0079
    7   1 O    8     -10.510000  -21.070002   14.330001       6.0000     15.9994
    8   2 H    1     -11.200000  -21.300001   14.980001       1.0000      1.0079
    9   2 H    1     -10.000000  -21.840000   14.010000       1.0000      1.0079
   10   1 O    8       5.240001    4.390000    9.050000       6.0000     15.9994
   11   2 H    1       5.750000    5.050000    9.590000       1.0000      1.0079
   12   2 H    1       4.950000    4.990000    8.330001       1.0000      1.0079
   13   1 O    8      13.770000  -20.670002   23.330002       6.0000     15.9994
   14   2 H    1      13.360001  -21.100002   24.040001       1.0000      1.0079
   15   2 H    1      13.720001  -19.760000   23.700001       1.0000      1.0079
   16   1 O    8      10.650001   21.130001   12.860001       6.0000     15.9994
   17   2 H    1      11.090001   20.210001   13.150001       1.0000      1.0079
   18   2 H    1      11.470001   21.730001   12.770000       1.0000      1.0079
   19   1 O    8     -10.390000   28.440001   21.310001       6.0000     15.9994
   20   2 H    1     -11.320001   28.530003   21.510000       1.0000      1.0079
   21   2 H    1     -10.480001   28.270000   20.330000       1.0000      1.0079
   22   1 O    8      -1.630000   31.550003    9.250001       6.0000     15.9994
   23   2 H    1      -1.500000   31.450003   10.210000       1.0000      1.0079
   24   2 H    1       5.810000   17.140001    9.110001       1.0000      1.0079
   25   1 O    8     -30.950001  -21.690002   29.320002       6.0000     15.9994
   26   2 H    1     -30.880001  -20.710001   29.450001       1.0000      1.0079
   27   2 H    1     -30.940001  -21.809999   28.320000       1.0000      1.0079
   28   1 O    8      21.410000    7.230001   18.970001       6.0000     15.9994
   29   2 H    1      21.500000    7.830000   18.120001       1.0000      1.0079
   30   2 H    1      20.960003    7.940001   19.470001       1.0000      1.0079
   31   1 O    8       9.470000   -4.040000   19.410002       6.0000     15.9994
   32   2 H    1       9.700001   -3.420000   18.690001       1.0000      1.0079
   33   2 H    1      10.330000   -4.280000   19.770000       1.0000      1.0079
   34   1 O    8      -6.360001  -27.480001   19.110001       6.0000     15.9994
   35   2 H    1      -6.250000  -28.340000   18.610001       1.0000      1.0079
   36   2 H    1      -5.750000  -26.920002   18.510000       1.0000      1.0079
   37   1 O    8     -11.720000  -18.380001   30.310001       6.0000     15.9994
   38   2 H    1     -11.740000  -17.530001   30.930002       1.0000      1.0079
   39   2 H    1     -11.250000  -17.910002   29.590000       1.0000      1.0079
   40   1 O    8      23.860001   10.740000   12.530001       6.0000     15.9994
   41   2 H    1      24.350002   10.670000   11.640000       1.0000      1.0079
   42   2 H    1      23.820002    9.910001   13.010001       1.0000      1.0079
   43   1 O    8       6.570000  -18.700001   23.580000       6.0000     15.9994
   44   2 H    1       5.870000  -18.390001   23.020000       1.0000      1.0079
   45   2 H    1       6.270000  -18.280001   24.460001       1.0000      1.0079
   46   1 O    8      -2.640000   16.460001   29.160002       6.0000     15.9994
   47   2 H    1      -2.410000   15.830001   28.450001       1.0000      1.0079
   48   2 H    1      -2.410000   16.120001   30.020000       1.0000      1.0079
   49   1 O    8      -1.010000   13.590001   25.370003       6.0000     15.9994
   50   2 H    1      -1.540000   12.860001   25.090000       1.0000      1.0079
   51   2 H    1      -0.810000   14.080001   24.500000       1.0000      1.0079
   52   1 O    8      -4.320000   11.630001   18.350000       6.0000     15.9994
   53   2 H    1      -4.980001   11.900001   17.670000       1.0000      1.0079
   54   2 H    1      -4.800000   11.360001   19.150002       1.0000      1.0079
   55   1 O    8       1.970000   -9.800000   21.070002       6.0000     15.9994
   56   2 H    1       1.460000  -10.360001   20.450001       1.0000      1.0079
   57   2 H    1       1.470000   -8.970000   21.280001       1.0000      1.0079
   58   1 O    8      15.550001   -6.930000   20.200001       6.0000     15.9994
   59   2 H    1      15.710001   -7.800000   19.610001       1.0000      1.0079
   60   2 H    1      14.570000   -7.010000   20.330000       1.0000      1.0079
   61   1 O    8     -16.630001   34.090000   32.130001       6.0000     15.9994
   62   2 H    1     -15.750000   34.440002   32.389999       1.0000      1.0079
   63   2 H    1      -0.320000   34.710003   32.610001       1.0000      1.0079
   64   1 O    8      30.460003  -26.960001   14.640001       6.0000     15.9994
   65   2 H    1      29.720001  -27.180002   14.030001       1.0000      1.0079
   66   2 H    1      47.570004  -26.000002   14.600000       1.0000      1.0079
   67   1 O    8       5.800000   -0.450000   12.080001       6.0000     15.9994
   68   2 H    1      -2.980000   14.870001   11.510000       1.0000      1.0079
   69   2 H    1       6.170001   -0.080000   12.900001       1.0000      1.0079
   70   1 O    8      -6.340000   21.670000   26.770000       6.0000     15.9994
   71   2 H    1      -7.160000   22.240002   26.800001       1.0000      1.0079
   72   2 H    1      -5.710001   22.139999   26.150000       1.0000      1.0079
   73   1 O    8     -16.070002    0.840000   29.080002       6.0000     15.9994
   74   2 H    1     -15.230001    1.330000   29.200001       1.0000      1.0079
   75   2 H    1     -16.240002    0.860000   28.080002       1.0000      1.0079
   76   1 O    8     -11.480000    1.500000   31.960001       6.0000     15.9994
   77   2 H    1     -11.950001    2.220000   32.330002       1.0000      1.0079
   78   2 H    1     -12.150001    0.730000   31.850002       1.0000      1.0079
   79   1 O    8     -11.460000  -45.790001   17.280001       6.0000     15.9994
   80   2 H    1     -10.630001  -46.370003   17.410000       1.0000      1.0079
   81   2 H    1     -11.110001  -45.010002   16.770000       1.0000      1.0079
   82   1 O    8      10.220001  -10.070001   10.250001       6.0000     15.9994
   83   2 H    1       9.660000  -10.310000    9.480001       1.0000      1.0079
   84   2 H    1      10.880001  -10.820000   10.230000       1.0000      1.0079
   85   1 O    8      -5.770000   13.650000    8.870000       6.0000     15.9994
   86   2 H    1      -5.500000   12.670001    8.760000       1.0000      1.0079
   87   2 H    1      -6.200000   13.810000    7.970000       1.0000      1.0079
   88   1 O    8      14.380001   -6.610000   29.590000       6.0000     15.9994
   89   2 H    1      -2.580000   -7.610001   29.280003       1.0000      1.0079
   90   2 H    1      13.830000   -6.060000   29.060001       1.0000      1.0079
   91   1 O    8       1.430000   -7.870001   11.760000       6.0000     15.9994
   92   2 H    1       2.130000   -8.470000   12.190001       1.0000      1.0079
   93   2 H    1       1.780000   -7.010000   12.140001       1.0000      1.0079
   94   1 O    8      23.870001   23.040001   28.660002       6.0000     15.9994
   95   2 H    1      23.160002   22.450001   28.830002       1.0000      1.0079
   96   2 H    1      24.490002   22.580002   29.240000       1.0000      1.0079
   97   1 O    8     -25.270002  -10.070001    8.260000       6.0000     15.9994
   98   2 H    1     -26.030003  -10.750000    8.370000       1.0000      1.0079
   99   2 H    1     -25.640001   -9.190001    8.540000       1.0000      1.0079
  100   1 O    8       4.090000   -7.060000   14.760000       6.0000     15.9994
  101   2 H    1       4.730000   -7.800000   15.000001       1.0000      1.0079
  102   2 H    1       3.280000   -7.360001   15.300001       1.0000      1.0079
  103   1 O    8      25.060001   -0.760000   10.990001       6.0000     15.9994
  104   2 H    1      25.470001   -1.570000   11.300000       1.0000      1.0079
  105   2 H    1       7.240000   -0.900000   11.320001       1.0000      1.0079
  106   1 O    8      -4.250000    7.440000    8.230000       6.0000     15.9994
  107   2 H    1      -5.210000    7.390000    8.340000       1.0000      1.0079
  108   2 H    1      -3.890000    6.710000    8.740000       1.0000      1.0079
  109   1 O    8      27.140003   12.780001   11.190001       6.0000     15.9994
  110   2 H    1      27.350002   13.220000   10.330000       1.0000      1.0079
  111   2 H    1      28.020000   12.560000   11.570001       1.0000      1.0079
  112   1 O    8     -21.960001    6.040000   18.710001       6.0000     15.9994
  113   2 H    1     -21.170002    6.550000   18.830002       1.0000      1.0079
  114   2 H    1     -22.230000    5.690000   19.590000       1.0000      1.0079
  115   1 O    8      16.260000   15.980000   12.780001       6.0000     15.9994
  116   2 H    1      16.520000   15.320001   12.120000       1.0000      1.0079
  117   2 H    1      16.930000   15.770000   13.480000       1.0000      1.0079
  118   1 O    8     -22.780001   15.380001   24.850002       6.0000     15.9994
  119   2 H    1     -22.980001   14.420000   24.630001       1.0000      1.0079
  120   2 H    1     -23.570002   15.620001   25.290001       1.0000      1.0079
  121   1 O    8      11.880001    3.360000   17.550001       6.0000     15.9994
  122   2 H    1      12.790001    3.080000   17.440001       1.0000      1.0079
  123   2 H    1      11.970000    4.190001   17.980001       1.0000      1.0079
  124   1 O    8     -21.830002   10.460000   30.180000       6.0000     15.9994
  125   2 H    1     -29.350002   25.350000   30.040001       1.0000      1.0079
  126   2 H    1     -21.900002    9.640000   29.640003       1.0000      1.0079
  127   1 O    8      12.200001  -10.550001   13.960000       6.0000     15.9994
  128   2 H    1      12.210001  -10.650001   14.980001       1.0000      1.0079
  129   2 H    1       3.410000    3.200000   13.750001       1.0000      1.0079
  130   1 O    8      -4.780000    1.310000   32.560001       6.0000     15.9994
  131   2 H    1      -3.980000    0.950000   33.049999       1.0000      1.0079
  132   2 H    1      -5.310000    1.660000   33.310001       1.0000      1.0079
  133   1 O    8       1.530000   21.220001    8.880001       6.0000     15.9994
  134   2 H    1       1.550000   21.320002    9.850000       1.0000      1.0079
  135   2 H    1       0.910000   21.820002    8.520000       1.0000      1.0079
  136   1 O    8     -21.670000   10.810001   20.800001       6.0000     15.9994
  137   2 H    1     -20.960003   10.070001   20.790001       1.0000      1.0079
  138   2 H    1     -22.369999   10.400001   21.360001       1.0000      1.0079
  139   1 O    8      -3.010000    6.850000   31.830002       6.0000     15.9994
  140   2 H    1      -3.170000    6.030001   32.320000       1.0000      1.0079
  141   2 H    1      -3.760000    7.440000   32.130001       1.0000      1.0079
  142   1 O    8       2.430000    6.730001   16.910002       6.0000     15.9994
  143   2 H    1       1.980000    6.220000   16.300001       1.0000      1.0079
  144   2 H    1       1.770000    7.390000   17.350002       1.0000      1.0079
  145   1 O    8     -20.960003   32.220001    9.010000       6.0000     15.9994
  146   2 H    1      -4.780000   32.190002    8.310000       1.0000      1.0079
  147   2 H    1     -21.480000   31.840002    9.780001       1.0000      1.0079
  148   1 O    8     -38.990002   17.100000   29.420002       6.0000     15.9994
  149   2 H    1     -39.050003   17.970001   29.870003       1.0000      1.0079
  150   2 H    1     -37.960003   16.970001   29.350002       1.0000      1.0079
  151   1 O    8     -12.050000    6.330000   23.020000       6.0000     15.9994
  152   2 H    1     -12.290001    6.520000   23.950003       1.0000      1.0079
  153   2 H    1     -11.310000    5.690000   23.070002       1.0000      1.0079
  154   1 O    8     -23.430002  -20.010002   22.260000       6.0000     15.9994
  155   2 H    1     -23.900002  -20.880001   22.020000       1.0000      1.0079
  156   2 H    1     -22.950001  -20.160000   23.100002       1.0000      1.0079
  157   1 O    8       3.360000   -9.550000   13.210001       6.0000     15.9994
  158   2 H    1       3.490000  -10.080000   12.360001       1.0000      1.0079
  159   2 H    1       4.270000   -9.510000   13.680000       1.0000      1.0079
  160   1 O    8       6.140000   -4.690000   11.240001       6.0000     15.9994
  161   2 H    1       5.540000   -5.340000   11.650001       1.0000      1.0079
  162   2 H    1       6.010000   -4.860000   10.230000       1.0000      1.0079
  163   1 O    8      38.170002  -13.080001   28.030003       6.0000     15.9994
  164   2 H    1      38.270000  -12.490001   27.240002       1.0000      1.0079
  165   2 H    1      38.960003  -12.910000   28.590002       1.0000      1.0079
  166   1 O    8       5.010000   -0.040000   15.340000       6.0000     15.9994
  167   2 H    1       4.330000   -0.560000   15.900001       1.0000      1.0079
  168   2 H    1       5.740000    0.400000   15.910001       1.0000      1.0079
  169   1 O    8     -38.590004   -1.260000   28.710001       6.0000     15.9994
  170   2 H    1     -21.730001   -0.310000   28.490002       1.0000      1.0079
  171   2 H    1     -22.380001   -1.280000   29.470001       1.0000      1.0079
  172   1 O    8       7.450001  -16.840002    9.060000       6.0000     15.9994
  173   2 H    1       7.310000  -16.820000    8.060000       1.0000      1.0079
  174   2 H    1       6.700000  -17.380001    9.280001       1.0000      1.0079
  175   1 O    8      10.100000  -10.680000   19.420002       6.0000     15.9994
  176   2 H    1       9.540001   -9.830000   19.600000       1.0000      1.0079
  177   2 H    1      11.000000  -10.370001   19.350000       1.0000      1.0079
  178   1 O    8      -9.690001   19.080002   29.080002       6.0000     15.9994
  179   2 H    1      -8.920000   19.730000   29.250002       1.0000      1.0079
  180   2 H    1      -9.470000   18.700001   28.150002       1.0000      1.0079
  181   1 O    8      16.270000    3.660000   26.210001       6.0000     15.9994
  182   2 H    1      17.170002    4.080000   26.049999       1.0000      1.0079
  183   2 H    1      15.750000    3.710000   25.340002       1.0000      1.0079
  184   1 O    8      12.260000   -6.620001   24.970001       6.0000     15.9994
  185   2 H    1      12.940001   -6.230001   25.550001       1.0000      1.0079
  186   2 H    1      11.960001   -6.030001   24.220001       1.0000      1.0079
  187   1 O    8     -16.370001   37.470001   17.940001       6.0000     15.9994
  188   2 H    1     -16.220001   38.260002   18.490002       1.0000      1.0079
  189   2 H    1     -16.750000   37.750000   17.070002       1.0000      1.0079
  190   1 O    8       8.350000   13.440001   31.050003       6.0000     15.9994
  191   2 H    1       8.850000   14.150001   30.610001       1.0000      1.0079
  192   2 H    1       8.630000   12.630000   30.540001       1.0000      1.0079
  193   1 O    8       9.580001    1.210000   14.790001       6.0000     15.9994
  194   2 H    1       9.890000    2.150000   14.840001       1.0000      1.0079
  195   2 H    1      10.230000    0.710000   15.400001       1.0000      1.0079
  196   1 O    8     -31.610003  -11.010000   15.110001       6.0000     15.9994
  197   2 H    1     -30.930002  -10.910001   15.800000       1.0000      1.0079
  198   2 H    1     -31.170002  -10.500001   14.310001       1.0000      1.0079
  199   1 O    8     -17.380001   21.300001   32.640003       6.0000     15.9994
  200   2 H    1     -17.130001   21.130001   33.600002       1.0000      1.0079
  201   2 H    1     -18.190001   21.840000   32.660004       1.0000      1.0079
  202   1 O    8      13.690001   14.590001    8.180000       6.0000     15.9994
  203   2 H    1      12.670001   14.560001    8.300000       1.0000      1.0079
  204   2 H    1      13.960000   13.640001    8.470000       1.0000      1.0079
  205   1 O    8      21.540001   -9.040001   10.290001       6.0000     15.9994
  206   2 H    1      12.670001    4.750000    9.850000       1.0000      1.0079
  207   2 H    1      22.440002   -9.340000   10.440001       1.0000      1.0079
  208   1 O    8      -0.820000  -16.720001   16.580002       6.0000     15.9994
  209   2 H    1      -1.320000  -16.070002   17.120001       1.0000      1.0079
  210   2 H    1      -1.140000  -17.610001   16.900002       1.0000      1.0079
  211   1 O    8      -0.060000  -20.760002   26.280001       6.0000     15.9994
  212   2 H    1      -0.410000  -21.520002   25.600002       1.0000      1.0079
  213   2 H    1      -0.580000  -20.870001   27.180002       1.0000      1.0079
  214   1 O    8      11.710000    6.340000   25.260000       6.0000     15.9994
  215   2 H    1      10.960001    5.930000   24.780003       1.0000      1.0079
  216   2 H    1      11.550001    6.130000   26.190002       1.0000      1.0079
  217   1 O    8     -25.770000   -3.640000   21.350000       6.0000     15.9994
  218   2 H    1     -25.130001   -3.660000   20.550001       1.0000      1.0079
  219   2 H    1     -26.180000   -2.710000   21.410000       1.0000      1.0079
  220   1 O    8      26.930000    9.410001   12.890000       6.0000     15.9994
  221   2 H    1      26.460001    9.310000   13.780001       1.0000      1.0079
  222   2 H    1      27.760000    9.820001   13.210001       1.0000      1.0079
  223   1 O    8       2.040000   -2.160000   16.770000       6.0000     15.9994
  224   2 H    1      18.120001   -2.730000   16.960001       1.0000      1.0079
  225   2 H    1       1.810000   -1.380000   17.320002       1.0000      1.0079
  226   1 O    8       7.220001   35.420002   12.610001       6.0000     15.9994
  227   2 H    1       8.190001   35.560001   12.350000       1.0000      1.0079
  228   2 H    1      23.940001   34.459999   12.750001       1.0000      1.0079
  229   1 O    8     -10.690001   12.980001   28.630001       6.0000     15.9994
  230   2 H    1     -11.430000   13.580000   28.500002       1.0000      1.0079
  231   2 H    1     -10.150002   13.450001   29.220001       1.0000      1.0079
  232   1 O    8       4.340000   -0.920000   31.320002       6.0000     15.9994
  233   2 H    1       4.340000   -0.970000   30.340002       1.0000      1.0079
  234   2 H    1       3.390000   -1.100000   31.610003       1.0000      1.0079
  235   1 O    8       0.940000   36.240002   22.560001       6.0000     15.9994
  236   2 H    1       0.250000   36.350002   23.280001       1.0000      1.0079
  237   2 H    1       1.430000   35.390003   22.770002       1.0000      1.0079
  238   1 O    8       4.320000   -3.980000   26.910002       6.0000     15.9994
  239   2 H    1      -3.610000   11.100000   26.210001       1.0000      1.0079
  240   2 H    1       3.620000   -3.320000   27.170002       1.0000      1.0079
  241   1 O    8      16.710001   -5.380001   28.720001       6.0000     15.9994
  242   2 H    1      16.040001   -5.950000   29.120003       1.0000      1.0079
  243   2 H    1      17.610001   -5.890000   28.950003       1.0000      1.0079
  244   1 O    8      -0.290000   -9.410001   15.670000       6.0000     15.9994
  245   2 H    1       0.350000  -10.120001   15.440001       1.0000      1.0079
  246   2 H    1      -0.530000   -9.530001   16.660002       1.0000      1.0079
  247   1 O    8      16.810001    2.600000   33.350002       6.0000     15.9994
  248   2 H    1      17.730001    2.120000   33.030003       1.0000      1.0079
  249   2 H    1      16.880001    3.470000   32.750000       1.0000      1.0079
  250   1 O    8      25.170002    0.240000   23.200001       6.0000     15.9994
  251   2 H    1      24.700001   -0.220000   22.460001       1.0000      1.0079
  252   2 H    1      26.160002    0.000000   23.140001       1.0000      1.0079
  253   1 O    8      -5.020000    1.040000   12.830001       6.0000     15.9994
  254   2 H    1      -4.370000    0.330000   12.580000       1.0000      1.0079
  255   2 H    1      -5.580000    0.530000   13.430000       1.0000      1.0079
  256   1 O    8      11.700001  -12.060001    8.980000       6.0000     15.9994
  257   2 H    1      12.410001  -11.430000    8.890000       1.0000      1.0079
  258   2 H    1      11.420001  -12.430000    8.120001       1.0000      1.0079
  259   1 O    8       0.650000   28.210001   20.590000       6.0000     15.9994
  260   2 H    1       0.750000   27.490002   21.260002       1.0000      1.0079
  261   2 H    1       0.730000   29.120003   20.990002       1.0000      1.0079
  262   1 O    8       9.630001   -2.860000   11.940001       6.0000     15.9994
  263   2 H    1      10.540000   -2.920000   12.360001       1.0000      1.0079
  264   2 H    1       9.670001   -3.310000   11.040001       1.0000      1.0079
  265   1 O    8      20.570002   -3.910000   14.480001       6.0000     15.9994
  266   2 H    1      20.070002   -3.170000   14.900002       1.0000      1.0079
  267   2 H    1      29.480001   11.300000   13.850001       1.0000      1.0079
  268   1 O    8      -5.930000  -19.800001   25.470001       6.0000     15.9994
  269   2 H    1      -5.920000  -20.780001   25.350000       1.0000      1.0079
  270   2 H    1      -5.090000  -19.610001   26.020002       1.0000      1.0079
  271   1 O    8       6.190000   -5.390000    8.650001       6.0000     15.9994
  272   2 H    1       6.850000   -6.200000    8.590000       1.0000      1.0079
  273   2 H    1       5.500000   -5.630000    8.070001       1.0000      1.0079
  274   1 O    8      -6.770000   -2.390000   17.260000       6.0000     15.9994
  275   2 H    1      -6.210001   -2.870000   16.610001       1.0000      1.0079
  276   2 H    1      -7.610001   -2.130000   16.830002       1.0000      1.0079
  277   1 O    8      12.580000    7.850000   12.200001       6.0000     15.9994
  278   2 H    1      -4.380000    7.680000   13.200001       1.0000      1.0079
  279   2 H    1      12.560000    7.030000   11.700001       1.0000      1.0079
  280   1 O    8      27.790001   -4.530000   29.910002       6.0000     15.9994
  281   2 H    1      27.250002   -4.080000   29.210003       1.0000      1.0079
  282   2 H    1      28.760002   -4.220000   29.860001       1.0000      1.0079
  283   1 O    8      22.340002   -6.800000   17.840000       6.0000     15.9994
  284   2 H    1      14.370001    8.510000   18.350000       1.0000      1.0079
  285   2 H    1      22.020000   -6.140000   17.130001       1.0000      1.0079
  286   1 O    8     -27.870003   23.930000   20.480001       6.0000     15.9994
  287   2 H    1     -11.090001   23.220001   21.180000       1.0000      1.0079
  288   2 H    1     -27.090000   24.520000   20.790001       1.0000      1.0079
  289   1 O    8      -6.670001    3.380000   28.530003       6.0000     15.9994
  290   2 H    1      -6.230001    3.320000   29.500000       1.0000      1.0079
  291   2 H    1      -6.060000    2.780000   28.020000       1.0000      1.0079
  292   1 O    8      19.050001   -6.500000   29.230001       6.0000     15.9994
  293   2 H    1      19.310001   -7.260000   28.730001       1.0000      1.0079
  294   2 H    1      18.810001   -6.810000   30.150002       1.0000      1.0079
  295   1 O    8      16.130001   18.550001   29.520000       6.0000     15.9994
  296   2 H    1      17.000000   18.450001   29.139999       1.0000      1.0079
  297   2 H    1      15.710001   17.800001   29.000000       1.0000      1.0079
  298   1 O    8       0.570000   11.910001   28.590002       6.0000     15.9994
  299   2 H    1       0.360000   11.720000   27.690001       1.0000      1.0079
  300   2 H    1      -0.250000   11.760000   29.080002       1.0000      1.0079
  301   1 O    8     -18.940001   12.000000    8.880001       6.0000     15.9994
  302   2 H    1     -18.850000   11.030001    8.760000       1.0000      1.0079
  303   2 H    1     -18.050001   12.230001    8.490001       1.0000      1.0079
  304   1 O    8      -9.920000    4.620000   23.590002       6.0000     15.9994
  305   2 H    1     -10.270000    4.140000   24.390001       1.0000      1.0079
  306   2 H    1      -8.930000    4.670000   23.680000       1.0000      1.0079
  307   1 O    8     -17.510000    6.970000    9.050000       6.0000     15.9994
  308   2 H    1     -16.880001    7.220001    8.280001       1.0000      1.0079
  309   2 H    1     -17.040001    7.100000    9.980000       1.0000      1.0079
  310   1 O    8     -21.330002   18.120001   26.690002       6.0000     15.9994
  311   2 H    1     -21.370001   17.340000   27.240002       1.0000      1.0079
  312   2 H    1     -20.500002   18.020000   26.110001       1.0000      1.0079
  313   1 O    8      -3.200000    4.730000   24.610003       6.0000     15.9994
  314   2 H    1      -3.510000    4.560000   23.670002       1.0000      1.0079
  315   2 H    1      -3.980000    5.170000   25.020000       1.0000      1.0079
  316   1 O    8       5.350000  -16.670000   32.570004       6.0000     15.9994
  317   2 H    1       4.550000  -16.460001   33.110001       1.0000      1.0079
  318   2 H    1       5.870000  -15.860001   32.490002       1.0000      1.0079
  319   1 O    8      -5.000000   -5.500000   20.340002       6.0000     15.9994
  320   2 H    1      -5.320000   -5.730000   21.320002       1.0000      1.0079
  321   2 H    1      -4.740000   -4.550000   20.540001       1.0000      1.0079
  322   1 O    8      19.580000    2.400000   22.830000       6.0000     15.9994
  323   2 H    1      19.490002    3.390000   22.959999       1.0000      1.0079
  324   2 H    1      19.500000    1.870000   23.650000       1.0000      1.0079
  325   1 O    8      -0.820000   22.350002   24.230001       6.0000     15.9994
  326   2 H    1      -1.590000   22.700003   23.810001       1.0000      1.0079
  327   2 H    1      -0.490000   23.120001   24.760000       1.0000      1.0079
  328   1 O    8      -2.760000    5.000000   14.270000       6.0000     15.9994
  329   2 H    1      -2.460000    5.310000   15.230001       1.0000      1.0079
  330   2 H    1      -2.060000    5.310000   13.640001       1.0000      1.0079
  331   1 O    8     -31.350002   34.260002   23.110001       6.0000     15.9994
  332   2 H    1     -31.410000   34.210003   24.110001       1.0000      1.0079
  333   2 H    1     -30.450001   34.600002   22.810001       1.0000      1.0079
  334   1 O    8      -9.880000    6.090000   26.370001       6.0000     15.9994
  335   2 H    1      -9.850000    6.780000   25.650002       1.0000      1.0079
  336   2 H    1     -10.460000    6.310000   27.100000       1.0000      1.0079
  337   1 O    8       6.680000   16.320002   29.960001       6.0000     15.9994
  338   2 H    1      16.060001    1.670000   29.640003       1.0000      1.0079
  339   2 H    1     -10.170001   17.270000   30.340002       1.0000      1.0079
  340   1 O    8      17.300001   24.880001   10.740000       6.0000     15.9994
  341   2 H    1      17.710001   24.560001   11.580001       1.0000      1.0079
  342   2 H    1      17.750000   25.760002   10.660001       1.0000      1.0079
  343   1 O    8       7.270000    5.330000   18.470001       6.0000     15.9994
  344   2 H    1       6.340000    5.030000   18.510000       1.0000      1.0079
  345   2 H    1       7.710000    4.620000   19.030001       1.0000      1.0079
  346   1 O    8      -5.420001   -8.200001   31.840002       6.0000     15.9994
  347   2 H    1      -5.340000   -7.950000   30.850000       1.0000      1.0079
  348   2 H    1      -4.860000   -8.990001   32.060001       1.0000      1.0079
  349   1 O    8      10.360001   -0.390000   30.860003       6.0000     15.9994
  350   2 H    1      11.120001    0.220000   31.160002       1.0000      1.0079
  351   2 H    1       9.650001   -0.650000   31.510002       1.0000      1.0079
  352   1 O    8      -0.960000   15.360001   33.310001       6.0000     15.9994
  353   2 H    1      -0.420000   16.180000   33.220001       1.0000      1.0079
  354   2 H    1      -1.790000   15.610001   32.930000       1.0000      1.0079
  355   1 O    8       8.410000    3.240000   19.950001       6.0000     15.9994
  356   2 H    1       9.190001    2.590000   19.670002       1.0000      1.0079
  357   2 H    1       7.830000    2.970000   20.740002       1.0000      1.0079
  358   1 O    8      -1.060000   15.730000   16.540001       6.0000     15.9994
  359   2 H    1      -0.270000   15.660001   15.920001       1.0000      1.0079
  360   2 H    1      -1.120000   16.740000   16.800001       1.0000      1.0079
  361   1 O    8     -28.420002    0.270000   26.639999       6.0000     15.9994
  362   2 H    1     -29.030001    0.330000   25.910000       1.0000      1.0079
  363   2 H    1     -27.700003   -0.320000   26.300001       1.0000      1.0079
  364   1 O    8       0.690000   26.370001   22.750000       6.0000     15.9994
  365   2 H    1      -0.280000   26.310001   22.990000       1.0000      1.0079
  366   2 H    1       0.900000   25.300003   22.600000       1.0000      1.0079
  367   1 O    8      13.820001   10.220001   16.490000       6.0000     15.9994
  368   2 H    1      13.340001   10.340000   15.680000       1.0000      1.0079
  369   2 H    1      13.490001   10.820000   17.210001       1.0000      1.0079
  370   1 O    8     -15.930000   -3.140000   29.470001       6.0000     15.9994
  371   2 H    1     -14.970001   -3.320000   29.620001       1.0000      1.0079
  372   2 H    1     -16.410000   -3.920000   29.160002       1.0000      1.0079
  373   1 O    8       1.360000   -4.480000   33.150002       6.0000     15.9994
  374   2 H    1       0.360000   -4.370000   33.080002       1.0000      1.0079
  375   2 H    1       1.670000   -3.590000   32.910000       1.0000      1.0079
  376   1 O    8     -11.190001   10.050000    9.370001       6.0000     15.9994
  377   2 H    1     -10.680000    9.340000    9.770000       1.0000      1.0079
  378   2 H    1     -10.750000   10.080000    8.480000       1.0000      1.0079
  379   1 O    8       6.170001   -3.790000   29.700001       6.0000     15.9994
  380   2 H    1       6.380000   -4.600000   29.120003       1.0000      1.0079
  381   2 H    1       6.490001   -3.980000   30.600002       1.0000      1.0079
  382   1 O    8       2.020000   -2.110000   32.500004       6.0000     15.9994
  383   2 H    1       2.190000   -1.670000   33.450005       1.0000      1.0079
  384   2 H    1       1.290000   -1.620000   32.040001       1.0000      1.0079
  385   1 O    8      -1.770000   33.720001   20.559999       6.0000     15.9994
  386   2 H    1      -1.930000   33.190002   19.750002       1.0000      1.0079
  387   2 H    1      -1.260000   34.550003   20.290001       1.0000      1.0079
  388   1 O    8       1.630000   14.480001    9.000000       6.0000     15.9994
  389   2 H    1       1.390000   14.320001    8.080000       1.0000      1.0079
  390   2 H    1       0.830000   14.180001    9.550000       1.0000      1.0079
  391   1 O    8       5.220000   13.670001   12.160001       6.0000     15.9994
  392   2 H    1       6.070001   13.660001   12.510000       1.0000      1.0079
  393   2 H    1       5.220000   13.870001   11.250000       1.0000      1.0079
  394   1 O    8       4.870000   25.700001   24.110001       6.0000     15.9994
  395   2 H    1      12.360001   11.480000   24.220001       1.0000      1.0079
  396   2 H    1       5.020000   26.090002   23.180000       1.0000      1.0079
  397   1 O    8       2.690000    8.960000   22.830000       6.0000     15.9994
  398   2 H    1       1.970000    8.280001   22.690001       1.0000      1.0079
  399   2 H    1       2.160000    9.780001   23.040001       1.0000      1.0079
  400   1 O    8       8.650001   15.500001   26.460001       6.0000     15.9994
  401   2 H    1       8.230000   14.800000   25.860003       1.0000      1.0079
  402   2 H    1       8.290001   16.420000   26.380001       1.0000      1.0079
  403   1 O    8      20.389999   40.970001   26.530001       6.0000     15.9994
  404   2 H    1      19.560001   40.660000   26.210001       1.0000      1.0079
  405   2 H    1      20.180000   41.340004   27.470001       1.0000      1.0079
  406   1 O    8      18.220001   -9.880000   23.600002       6.0000     15.9994
  407   2 H    1      18.110001  -10.620001   24.240000       1.0000      1.0079
  408   2 H    1      18.490002  -10.270000   22.750000       1.0000      1.0079
  409   1 O    8      19.230001    6.750000    9.030001       6.0000     15.9994
  410   2 H    1      19.139999    5.870000    9.480001       1.0000      1.0079
  411   2 H    1      19.510000    6.520000    8.090000       1.0000      1.0079
  412   1 O    8     -24.370001  -13.080001   21.130001       6.0000     15.9994
  413   2 H    1     -24.180002  -12.400000   20.420000       1.0000      1.0079
  414   2 H    1     -23.700001  -12.770000   21.910002       1.0000      1.0079
  415   1 O    8     -25.080002    9.060000   15.330001       6.0000     15.9994
  416   2 H    1     -25.960003    8.770000   14.950001       1.0000      1.0079
  417   2 H    1     -24.600000    8.360001   15.840001       1.0000      1.0079
  418   1 O    8      24.150002   31.800001   22.060001       6.0000     15.9994
  419   2 H    1      24.010000   32.540001   22.690001       1.0000      1.0079
  420   2 H    1      24.810001   31.150002   22.410002       1.0000      1.0079
  421   1 O    8      20.020000   -3.600000    8.760000       6.0000     15.9994
  422   2 H    1      20.260000   -4.320000    9.300001       1.0000      1.0079
  423   2 H    1      20.010002   -3.900000    7.820001       1.0000      1.0079
  424   1 O    8      -6.610000    7.690001   31.900002       6.0000     15.9994
  425   2 H    1      -7.580000    7.410001   32.150002       1.0000      1.0079
  426   2 H    1       1.980000   -6.230001   32.560001       1.0000      1.0079
  427   1 O    8      -5.320000    5.580000   27.830002       6.0000     15.9994
  428   2 H    1      -5.810000    4.770000   28.020000       1.0000      1.0079
  429   2 H    1      -4.470000    5.540000   28.310001       1.0000      1.0079
  430   1 O    8     -18.610001    0.650000   32.700001       6.0000     15.9994
  431   2 H    1     -18.030001    1.400000   33.000000       1.0000      1.0079
  432   2 H    1     -18.540001    0.730000   31.730001       1.0000      1.0079
  433   1 O    8       0.320000  -21.870001   11.490001       6.0000     15.9994
  434   2 H    1       0.430000  -21.010000   11.910001       1.0000      1.0079
  435   2 H    1       1.120000  -22.410002   11.740000       1.0000      1.0079
  436   1 O    8       3.460000   18.020000   30.630001       6.0000     15.9994
  437   2 H    1       3.460000   17.260000   31.190002       1.0000      1.0079
  438   2 H    1      11.330000    4.040000   31.200001       1.0000      1.0079
  439   1 O    8      -2.670000    1.100000   23.340000       6.0000     15.9994
  440   2 H    1      -2.000000    1.750000   22.940002       1.0000      1.0079
  441   2 H    1      -3.310000    1.070000   22.590000       1.0000      1.0079
  442   1 O    8       6.840000   11.830001   26.110001       6.0000     15.9994
  443   2 H    1       6.730001   12.330000   26.940002       1.0000      1.0079
  444   2 H    1       7.520000   11.110001   26.310001       1.0000      1.0079
  445   1 O    8     -18.020000   -1.600000   13.670001       6.0000     15.9994
  446   2 H    1     -17.020000   -1.290000   13.490001       1.0000      1.0079
  447   2 H    1     -18.000000   -2.550000   13.360001       1.0000      1.0079
  448   1 O    8      -5.090000   -5.790000    9.870001       6.0000     15.9994
  449   2 H    1      -5.410000   -6.740000    9.550000       1.0000      1.0079
  450   2 H    1      12.700001   -5.510000    9.550000       1.0000      1.0079
  451   1 O    8      15.640001    6.800000   24.500000       6.0000     15.9994
  452   2 H    1      14.970001    6.050000   24.520000       1.0000      1.0079
  453   2 H    1      15.030001    7.460001   24.090002       1.0000      1.0079
  454   1 O    8       5.840001    8.340000   32.150002       6.0000     15.9994
  455   2 H    1       4.840000    8.280001   32.400002       1.0000      1.0079
  456   2 H    1       5.760000    8.460000   31.170002       1.0000      1.0079
  457   1 O    8       8.290001  -20.660000    8.600000       6.0000     15.9994
  458   2 H    1       8.690001  -20.110001    9.290000       1.0000      1.0079
  459   2 H    1       8.450001  -20.210001    7.740001       1.0000      1.0079
  460   1 O    8      14.510001   -0.030000   15.660001       6.0000     15.9994
  461   2 H    1      14.220000    0.790000   15.140000       1.0000      1.0079
  462   2 H    1      -2.000000   -0.580000   14.930000       1.0000      1.0079
  463   1 O    8     -10.060000  -26.910002    8.120001       6.0000     15.9994
  464   2 H    1     -10.850000  -26.190002    8.360001       1.0000      1.0079
  465   2 H    1     -10.460000  -27.840002    8.230000       1.0000      1.0079
  466   1 O    8       7.750000  -13.240002   17.380001       6.0000     15.9994
  467   2 H    1       7.210000  -13.680000   16.700001       1.0000      1.0079
  468   2 H    1       8.340000  -12.520000   17.020000       1.0000      1.0079
  469   1 O    8     -11.430000  -10.450001   32.500004       6.0000     15.9994
  470   2 H    1     -11.950001  -10.880001   31.780003       1.0000      1.0079
  471   2 H    1     -11.840000  -10.790000   33.290001       1.0000      1.0079
  472   1 O    8      -1.020000    2.740000   22.460001       6.0000     15.9994
  473   2 H    1      -1.400000    3.410000   21.820002       1.0000      1.0079
  474   2 H    1      -0.330000    2.270000   21.980001       1.0000      1.0079
  475   1 O    8      12.300000  -11.100000   16.580002       6.0000     15.9994
  476   2 H    1      12.380000  -10.480001   17.340000       1.0000      1.0079
  477   2 H    1      12.260000  -11.990000   16.930000       1.0000      1.0079
  478   1 O    8     -21.700001   25.860003   13.530001       6.0000     15.9994
  479   2 H    1     -21.410000   25.030001   13.110001       1.0000      1.0079
  480   2 H    1     -21.160002   26.570000   13.090000       1.0000      1.0079
  481   1 O    8       0.220000    6.960001   29.840002       6.0000     15.9994
  482   2 H    1       1.180000    6.910000   29.630001       1.0000      1.0079
  483   2 H    1       0.130000    6.770000   30.790003       1.0000      1.0079
  484   1 O    8      -6.430000   41.580002   27.130001       6.0000     15.9994
  485   2 H    1      -7.130001   41.200005   27.760000       1.0000      1.0079
  486   2 H    1      -5.910000   42.200005   27.630003       1.0000      1.0079
  487   1 O    8       2.330000   43.120003   22.760000       6.0000     15.9994
  488   2 H    1       2.790000   43.120003   23.660002       1.0000      1.0079
  489   2 H    1       2.980000   43.570004   22.100000       1.0000      1.0079
  490   1 O    8       0.130000   24.600000   19.600000       6.0000     15.9994
  491   2 H    1       0.890000   24.270000   20.120001       1.0000      1.0079
  492   2 H    1      -0.570000   23.940001   19.690001       1.0000      1.0079
  493   1 O    8      -3.220000    6.360001   29.120003       6.0000     15.9994
  494   2 H    1     -11.630001   21.150000   30.160000       1.0000      1.0079
  495   2 H    1      -2.560000    5.650000   29.020002       1.0000      1.0079
  496   1 O    8       1.830000    4.590000   25.660002       6.0000     15.9994
  497   2 H    1      -6.560000   20.100000   25.950001       1.0000      1.0079
  498   2 H    1      -5.810000   18.690001   26.100002       1.0000      1.0079
  499   1 O    8      16.280001    9.500000   15.730000       6.0000     15.9994
  500   2 H    1      15.340000    9.910001   15.990001       1.0000      1.0079
  501   2 H    1      16.470001    9.750000   14.830000       1.0000      1.0079
  502   1 O    8      -0.060000   -5.010000   26.150000       6.0000     15.9994
  503   2 H    1       0.860000   -4.860000   25.810001       1.0000      1.0079
  504   2 H    1       0.120000   -5.390000   27.050001       1.0000      1.0079
  505   1 O    8      22.980001    3.520000   12.580000       6.0000     15.9994
[...]
    899      3      Pt         -0.00846627    -0.01111314    -0.00978238
    900      3      Pt         -0.00932328     0.00203456     0.00606663
    901      3      Pt          0.01073091    -0.00256395    -0.00637594
    902      3      Pt         -0.00081869    -0.00958255    -0.00192180
    903      3      Pt         -0.00703660     0.00906751     0.00775967
    904      3      Pt         -0.00591673    -0.00126893    -0.00520917
    905      3      Pt          0.01707928     0.00545260     0.00460704
    906      3      Pt         -0.00092761    -0.00076665    -0.00621761
 SUM OF ATOMIC FORCES          -0.00861911    -0.00484058    -0.00368855     0.01055110

 STRESS| Analytical stress tensor [GPa]
 STRESS|                        x                   y                   z
 STRESS|      x       -2.19911584072E+00   7.32167409775E-02   2.85681400149E-01
 STRESS|      y        7.32167409775E-02  -2.31250867494E+00  -1.06289532684E-01
 STRESS|      z        2.85681400149E-01  -1.06289532684E-01  -1.09307953958E-01
 STRESS| 1/3 Trace                                            -1.54031082321E+00
 STRESS| Determinant                                          -3.46166087598E-01

 STRESS| Eigenvectors and eigenvalues of the analytical stress tensor [GPa]
 STRESS|                        1                   2                   3
 STRESS| Eigenvalues  -2.37225653158E+00  -2.18179395610E+00  -6.68819819406E-02
 STRESS|      x          -0.531221460356      0.837006796561      0.131237885416
 STRESS|      y           0.840507427148      0.540122662277     -0.042600171397
 STRESS|      z           0.106541189056     -0.087676292155      0.990435178509

 -------------------------------------------------------------------------------
 -                                                                             -
 -                                DBCSR STATISTICS                             -
 -                                                                             -
 -------------------------------------------------------------------------------
 COUNTER                                    TOTAL       BLAS       SMM       ACC
 flops     5 x     5 x   288          87677121600       0.0%    100.0%      0.0%
 flops     5 x     5 x   292          88894859400       0.0%    100.0%      0.0%
 flops    13 x     5 x   288          98870129280       0.0%    100.0%      0.0%
 flops     5 x    13 x   288          99033891840       0.0%    100.0%      0.0%
 flops    13 x     5 x   292         100243325520       0.0%    100.0%      0.0%
 flops     5 x    13 x   292         100409362560       0.0%    100.0%      0.0%
 flops    20 x    13 x   288         100598734080       0.0%    100.0%      0.0%
 flops    13 x    20 x   288         101326567680       0.0%    100.0%      0.0%
 flops    20 x    13 x   292         101995938720       0.0%    100.0%      0.0%
 flops    13 x    20 x   292         102733881120       0.0%    100.0%      0.0%
 flops    13 x    13 x   288         105688717056       0.0%    100.0%      0.0%
 flops    13 x    13 x   292         107156615904       0.0%    100.0%      0.0%
 flops    20 x     5 x   288         110000851200       0.0%    100.0%      0.0%
 flops     5 x    20 x   288         110019513600       0.0%    100.0%      0.0%
 flops    20 x     5 x   292         111528640800       0.0%    100.0%      0.0%
 flops     5 x    20 x   292         111547562400       0.0%    100.0%      0.0%
 flops    20 x    20 x   288         437372006400       0.0%    100.0%      0.0%
 flops    20 x    20 x   292         443446617600       0.0%    100.0%      0.0%
 flops     5 x     5 x   320         584514144000       0.0%    100.0%      0.0%
 flops    13 x     5 x   320         659134195200       0.0%    100.0%      0.0%
 flops     5 x    13 x   320         660225945600       0.0%    100.0%      0.0%
 flops    20 x    13 x   320         670658227200       0.0%    100.0%      0.0%
 flops    13 x    20 x   320         675510451200       0.0%    100.0%      0.0%
 flops    13 x    13 x   320         704591447040       0.0%    100.0%      0.0%
 flops    20 x     5 x   320         733339008000       0.0%    100.0%      0.0%
 flops     5 x    20 x   320         733463424000       0.0%    100.0%      0.0%
 flops    20 x    20 x   320        2915813376000       0.0%    100.0%      0.0%
 flops inhomo. stacks                           0       0.0%      0.0%      0.0%
 flops total                        10.855795E+12       0.0%    100.0%      0.0%
 flops max/rank                    177.390000E+09       0.0%    100.0%      0.0%
 matmuls inhomo. stacks                         0       0.0%      0.0%      0.0%
 matmuls total                          156214008       0.0%    100.0%      0.0%
 number of processed stacks                414720       0.0%    100.0%      0.0%
 average stack size                                     0.0     376.7       0.0
 marketing flops                    30.830817E+12
 -------------------------------------------------------------------------------
 # multiplications                             81
 max memory usage/rank               1.870819E+09
 # max total images/rank                        1
 # max 3D layers                                1
 # MPI messages exchanged                   72576
 MPI messages size (bytes):
  total size                       217.954714E+09
  min size                           2.762496E+06
  max size                           3.077120E+06
  average size                       3.003124E+06
 MPI breakdown and total messages size (bytes):
             size <=      128                   0                        0
       128 < size <=     8192                   0                        0
      8192 < size <=    32768                   0                        0
     32768 < size <=   131072                   0                        0
    131072 < size <=  4194304               72576             217954800000
   4194304 < size <= 16777216                   0                        0
  16777216 < size                               0                        0
 -------------------------------------------------------------------------------
 -                                                                             -
 -                      DBCSR MESSAGE PASSING PERFORMANCE                      -
 -                                                                             -
 -------------------------------------------------------------------------------
 ROUTINE             CALLS      AVE VOLUME [Bytes]
 MP_Bcast               28                     12.
 MP_Allreduce          641                     10.
 MP_Alltoall          2268                1991849.
 MP_ISend             2592                1329597.
 MP_IRecv             2592                1310413.
 -------------------------------------------------------------------------------

 -------------------------------------------------------------------------------
 -                                                                             -
 -                                DBM STATISTICS                               -
 -                                                                             -
 -------------------------------------------------------------------------------
    M  x    N  x    K                                          COUNT     PERCENT
 -------------------------------------------------------------------------------

 -------------------------------------------------------------------------------
 -                                                                             -
 -                                GRID STATISTICS                              -
 -                                                                             -
 -------------------------------------------------------------------------------
 LP    KERNEL             BACKEND                              COUNT     PERCENT
 3     collocate general  REF                               56271753      18.89%
 3     integrate general  REF                               55635024      18.67%
 2     collocate general  REF                               52924347      17.76%
 2     integrate general  REF                               52270960      17.54%
 4     collocate general  REF                               39661974      13.31%
 4     integrate general  REF                               39172320      13.15%
 6     integrate general  REF                                 694713       0.23%
 5     integrate general  REF                                 653387       0.22%
 7     integrate general  REF                                 489654       0.16%
 0     collocate general  REF                                 115968       0.04%
 0     integrate general  REF                                  57984       0.02%
 -------------------------------------------------------------------------------

 MEMORY| Estimated peak process memory [MiB]                                2106

 -------------------------------------------------------------------------------
 ----                             MULTIGRID INFO                            ----
 -------------------------------------------------------------------------------
 count for grid        1:         731080          cutoff [a.u.]          200.00
 count for grid        2:         807245          cutoff [a.u.]           66.67
 count for grid        3:         741373          cutoff [a.u.]           22.22
 count for grid        4:         831269          cutoff [a.u.]            7.41
 total gridlevel count  :        3110967

 -------------------------------------------------------------------------------
 -                                                                             -
 -                         MESSAGE PASSING PERFORMANCE                         -
 -                                                                             -
 -------------------------------------------------------------------------------

 ROUTINE             CALLS      AVE VOLUME [Bytes]
 MP_Group                4
 MP_Bcast              262                2253303.
 MP_Allreduce         1365                   1836.
 MP_Sync                84
 MP_Alltoall          1798               14144864.
 MP_SendRecv           252                  13686.
 MP_ISendRecv        20412                 113680.
 MP_Wait             45668
 MP_ISend            23616                 340043.
 MP_IRecv            23616                 340043.
 MP_Recv               308                2460160.
 MP_Write_All            3                1540656.
 -------------------------------------------------------------------------------


 -------------------------------------------------------------------------------
 -                                                                             -
 -                           R E F E R E N C E S                               -
 -                                                                             -
 -------------------------------------------------------------------------------
 
 CP2K version 2022.1, the CP2K developers group (2022).
 CP2K is freely available from https://www.cp2k.org/ .

 Kuehne,Thomas D.; Iannuzzi,Marcella; Del Ben,Mauro;
 Rybkin,Vladimir V.; Seewald,Patrick; Stein,Frederick; Laino,Teodoro;
 Khaliullin,Rustam Z.; Schuett,Ole; Schiffmann,Florian; Golze,Dorothea;
 Wilhelm,Jan; Chulkov,Sergey; Bani-Hashemian,Mohammad Hossein;
 Weber,Valery; Borstnik,Urban; Taillefumier,Mathieu;
 Jakobovits,Alice Shoshana; Lazzaro,Alfio; Pabst,Hans; Mueller,Tiziano;
 Schade,Robert; Guidon,Manuel; Andermatt,Samuel; Holmberg,Nico;
 Schenter,Gregory K.; Hehn,Anna; Bussy,Augustin; Belleflamme,Fabian;
 Tabacchi,Gloria; Gloess,Andreas; Lass,Michael; Bethune,Iain;
 Mundy,Christopher J.; Plessl,Christian; Watkins,Matt;
 VandeVondele,Joost; Krack,Matthias; Hutter,Juerg. 
 The Journal of Chemical Physics, 152 (19), (2020). 
 CP2K: An electronic structure and molecular dynamics software package -
 Quickstep: Efficient and accurate electronic structure calculations.
 https://doi.org/10.1063/5.0007045

 Goerigk, Lars; Hansen, Andreas; Bauer, Christoph; Ehrlich, Stephan;
 Najibi, Asim; Grimme, Stefan. , 19 (48), (2017). 
 A look at the density functional theory zoo with the advanced GMTKN55 database
 for general main group thermochemistry, kinetics and noncovalent interactions.
 https://doi.org/10.1039/C7CP04913G

 Schuett, Ole; Messmer, Peter; Hutter, Juerg; VandeVondele, Joost. 
 Electronic Structure Calculations on Graphics Processing Units, John
 Wiley & Sons, Ltd, 173-190 (2016). 
 GPU-Accelerated Sparse Matrix-Matrix Multiplication for
 Linear Scaling Density Functional Theory.
 https://doi.org/10.1002/9781118670712.ch8

 Heinecke, A; Henry, G; Hutchinson, M; Pabst, H. 
 Proceedings of Intl. Supercomputing Conference, 981-991 (2016). 
 LIBXSMM: Accelerating Small Matrix Multiplications
 by Runtime Code Generation.
 https://doi.org/10.1109/SC.2016.83

 Borstnik, U; VandeVondele, J; Weber, V; Hutter, J. 
 PARALLEL COMPUTING, 40 (5-6), 47-58 (2014). 
 Sparse matrix multiplication: The distributed block-compressed sparse
 row library.
 https://doi.org/10.1016/j.parco.2014.03.012

 Hutter, J; Iannuzzi, M; Schiffmann, F; VandeVondele, J. 
 WIREs Comput Mol Sci., 4 (1), 15-25 (2014). 
 CP2K: atomistic simulations of condensed matter systems.
 https://doi.org/10.1002/wcms.1159

 Marek, A; Blum, V; Johanni, R; Havu, V; Lang, B; Auckenthaler, T;
 Heinecke, A; Bungartz, H; Lederer, H. 
 Journal of Physics: Condensed Matter, 26 (21), (2014). 
 The ELPA library: scalable parallel eigenvalue solutions for
 electronic structure
 theory and computational science.
 https://doi.org/10.1088/0953-8984/26/21/213201

 Grimme, S; Ehrlich, S; Goerigk, L. 
 JOURNAL OF COMPUTATIONAL CHEMISTRY, 32, 1456 (2011). 
 Effect of the damping function in dispersion corrected density functional theory.
 https://doi.org/10.1002/jcc.21759

 Grimme, S; Antony, J; Ehrlich, S; Krieg, H. 
 JOURNAL OF CHEMICAL PHYSICS, 132 (15), 154104 (2010). 
 A consistent and accurate ab initio parametrization of density
 functional dispersion correction (DFT-D) for the 94 elements H-Pu.
 https://doi.org/10.1063/1.3382344

 VandeVondele, J; Hutter, J. 
 JOURNAL OF CHEMICAL PHYSICS, 127 (11), 114105 (2007). 
 Gaussian basis sets for accurate calculations on molecular systems in
 gas and condensed phases.
 https://doi.org/10.1063/1.2770708

 Krack, M. 
 THEORETICAL CHEMISTRY ACCOUNTS, 114 (1-3), 145-152 (2005). 
 Pseudopotentials for H to Kr optimized for gradient-corrected
 exchange-correlation functionals.
 https://doi.org/10.1007/s00214-005-0655-y

 VandeVondele, J; Krack, M; Mohamed, F; Parrinello, M; Chassaing, T;
 Hutter, J. COMPUTER PHYSICS COMMUNICATIONS, 167 (2), 103-128 (2005). 
 QUICKSTEP: Fast and accurate density functional calculations using a
 mixed Gaussian and plane waves approach.
 https://doi.org/10.1016/j.cpc.2004.12.014

 Frigo, M; Johnson, SG. 
 PROCEEDINGS OF THE IEEE, 93 (2), 216-231 (2005). 
 The design and implementation of FFTW3.
 https://doi.org/10.1109/JPROC.2004.840301

 Hartwigsen, C; Goedecker, S; Hutter, J. 
 PHYSICAL REVIEW B, 58 (7), 3641-3662 (1998). 
 Relativistic separable dual-space Gaussian pseudopotentials from H to Rn.
 https://doi.org/10.1103/PhysRevB.58.3641

 Lippert, G; Hutter, J; Parrinello, M. 
 MOLECULAR PHYSICS, 92 (3), 477-487 (1997). 
 A hybrid Gaussian and plane wave density functional scheme.
 https://doi.org/10.1080/002689797170220

 Perdew, JP; Burke, K; Ernzerhof, M. 
 PHYSICAL REVIEW LETTERS, 77 (18), 3865-3868 (1996). 
 Generalized gradient approximation made simple.
 https://doi.org/10.1103/PhysRevLett.77.3865

 Goedecker, S; Teter, M; Hutter, J. 
 PHYSICAL REVIEW B, 54 (3), 1703-1710 (1996). 
 Separable dual-space Gaussian pseudopotentials.
 https://doi.org/10.1103/PhysRevB.54.1703


 -------------------------------------------------------------------------------
 -                                                                             -
 -                                T I M I N G                                  -
 -                                                                             -
 -------------------------------------------------------------------------------
 SUBROUTINE                       CALLS  ASD         SELF TIME        TOTAL TIME
                                MAXIMUM       AVERAGE  MAXIMUM  AVERAGE  MAXIMUM
 CP2K                                 1  1.0    0.032    0.040  958.864  958.866
 qs_forces                            1  2.0    0.002    0.003  958.480  958.481
 qs_energies                          1  3.0    0.000    0.001  945.984  945.996
 scf_env_do_scf                       1  4.0    0.000    0.001  937.705  937.946
 scf_env_do_scf_inner_loop           80  5.0    0.004    0.014  937.705  937.945
 qs_scf_new_mos                      80  6.0    0.005    0.013  382.044  382.562
 eigensolver                         80  7.0    0.007    0.011  354.823  355.248
 rebuild_ks_matrix                   81  7.0    0.000    0.000  296.211  296.261
 qs_ks_build_kohn_sham_matrix        81  8.0    0.012    0.013  296.211  296.261
 qs_ks_update_qs_env                 80  6.0    0.001    0.001  288.221  288.271
 qs_rho_update_rho_low               81  6.0    0.001    0.001  253.101  253.128
 calculate_rho_elec                  81  7.0    0.189    0.222  253.100  253.127
 sum_up_and_integrate                81  9.0    0.342    0.428  248.705  248.762
 integrate_v_rspace                  81 10.0    0.003    0.004  248.363  248.457
 grid_collocate_task_list            81  8.0  222.418  228.669  222.418  228.669
 grid_integrate_task_list            81 11.0  216.801  222.937  216.801  222.937
 cp_fm_diag_elpa                     80  8.0    0.001    0.001  207.792  208.323
 cp_fm_diag_elpa_base                80  9.0  204.595  205.349  207.437  207.501
 cp_fm_triangular_multiply          240  8.0  144.071  146.021  144.071  146.021
 pw_transfer                       1620 10.9    0.115    0.151   44.665   45.604
 fft_wrap_pw1pw2                   1458 12.0    0.014    0.018   44.153   45.088
 rs_pw_transfer                     652 10.5    0.007    0.008   39.302   44.040
 fft_wrap_pw1pw2_200                972 13.3    3.994    4.453   42.522   43.521
 qs_vxc_create                       81  9.0    0.003    0.003   41.866   42.104
 xc_vxc_pw_create                    81 10.0    0.743    0.779   41.864   42.102
 fft3d_ps                          1458 14.0   16.138   18.076   32.534   33.832
 density_rs2pw                       81  8.0    0.005    0.006   28.050   33.032
 xc_pw_derive                       486 12.0    0.008    0.010   26.688   28.013
 xc_rho_set_and_dset_create          81 11.0    0.395    0.424   22.492   24.015
 potential_pw2rs                     81 11.0    0.030    0.037   23.356   23.433
 mp_waitany                       23616 12.4   16.925   22.356   16.925   22.356
 calculate_dm_sparse                 80  7.0    0.024    0.032   19.804   20.496
 cp_dbcsr_plus_fm_fm_t_native        81  8.0    0.004    0.010   19.742   20.468
 rs_pw_transfer_RS2PW_200            83 10.0    5.258    5.824   15.659   20.445
 -------------------------------------------------------------------------------

 The number of warnings for this run is : 1
 
 -------------------------------------------------------------------------------
  **** **** ******  **  PROGRAM ENDED AT                 2023-11-26 18:10:46.614
 ***** ** ***  *** **   PROGRAM RAN ON                                     cu054
 **    ****   ******    PROGRAM RAN BY                                     jxzhu
 ***** **    ** ** **   PROGRAM PROCESS ID                                 49867
  **** **  *******  **  PROGRAM STOPPED IN /public/home/jxzhu/tmp_calc/af2075565
                                           805657d94fa4669dad6f4b174b0a4fb/calc/
                                           001700.000/pbc
