 DBCSR| CPU Multiplication driver                                           XSMM
 DBCSR| Multrec recursion limit                                              512
 DBCSR| Multiplication stack size                                           1000
 DBCSR| Maximum elements for images                                    UNLIMITED
 DBCSR| Multiplicative factor virtual images                                   1
 DBCSR| Use multiplication densification                                       T
 DBCSR| Multiplication size stacks                                             3
 DBCSR| Use memory pool for CPU allocation                                     F
 DBCSR| Number of 3D layers                                               SINGLE
 DBCSR| Use MPI memory allocation                                              F
 DBCSR| Use RMA algorithm                                                      F
 DBCSR| Use Communication thread                                               T
 DBCSR| Communication thread load                                             87
 DBCSR| MPI: My node id                                                        0
 DBCSR| MPI: Number of nodes                                                  64
 DBCSR| OMP: Current number of threads                                         1
 DBCSR| OMP: Max number of threads                                             1
 DBCSR| Split modifier for TAS multiplication algorithm                  1.0E+00


  **** **** ******  **  PROGRAM STARTED AT               2023-11-26 22:00:55.691
 ***** ** ***  *** **   PROGRAM STARTED ON                                 cu054
 **    ****   ******    PROGRAM STARTED BY                                 jxzhu
 ***** **    ** ** **   PROGRAM PROCESS ID                                 28352
  **** **  *******  **  PROGRAM STARTED IN /public/home/jxzhu/tmp_calc/af2075565
                                           805657d94fa4669dad6f4b174b0a4fb/calc/
                                           000300.000/pbc

 CP2K| version string:                                       CP2K version 2022.1
 CP2K| source code revision number:                                  git:2caeb6f
 CP2K| cp2kflags: omp libint fftw3 libxc elpa parallel mpi3 scalapack cosma xsmm
 CP2K|             plumed2 spglib mkl sirius libvori libbqb
 CP2K| is freely available from                            https://www.cp2k.org/
 CP2K| Program compiled at                           Mon Jul 3 17:37:06 CST 2023
 CP2K| Program compiled on                                                 mu003
 CP2K| Program compiled for                                                local
 CP2K| Data directory path                             /public/home/jxzhu/basis/
 CP2K| Input file name                                                 input.inp
 
 GLOBAL| Force Environment number                                              1
 GLOBAL| Basis set file name                                        BASIS_MOLOPT
 GLOBAL| Potential file name                                      GTH_POTENTIALS
 GLOBAL| MM Potential file name                                     MM_POTENTIAL
 GLOBAL| Coordinate file name                                          coord.xyz
 GLOBAL| Method name                                                        CP2K
 GLOBAL| Project name                                                       cp2k
 GLOBAL| Run type                                                   ENERGY_FORCE
 GLOBAL| FFT library                                                       FFTW3
 GLOBAL| Diagonalization library                                            ELPA
 GLOBAL| Minimum number of eigenvectors for ELPA usage                        16
 GLOBAL| Orthonormality check for eigenvectors                          DISABLED
 GLOBAL| Matrix multiplication library                                     COSMA
 GLOBAL| All-to-all communication in single precision                          F
 GLOBAL| FFTs using library dependent lengths                                  F
 GLOBAL| Grid backend                                                       AUTO
 GLOBAL| Global print level                                               MEDIUM
 GLOBAL| MPI I/O enabled                                                       T
 GLOBAL| Total number of message passing processes                            64
 GLOBAL| Number of threads for this process                                    1
 GLOBAL| This output is from process                                           0
 GLOBAL| Stack size for threads created by OpenMP (OMP_STACKSIZE)        default
 GLOBAL| CPU model name                 Intel(R) Xeon(R) Gold 6338 CPU @ 2.00GHz
 GLOBAL| CPUID                                                              1003

 MEMORY| system memory details [Kb]
 MEMORY|                        rank 0           min           max       average
 MEMORY| MemTotal            263619172     263619172     263619172     263619172
 MEMORY| MemFree             209720396     209720396     209722876     209721093
 MEMORY| Buffers                  3320          3320          3320          3320
 MEMORY| Cached                4886804       4886804       4886804       4886804
 MEMORY| Slab                  1891920       1891920       1891920       1891920
 MEMORY| SReclaimable           246256        246256        246256        246256
 MEMORY| MemLikelyFree       214856776     214856776     214859256     214857473


 *** Fundamental physical constants (SI units) ***

 *** Literature: B. J. Mohr and B. N. Taylor,
 ***             CODATA recommended values of the fundamental physical
 ***             constants: 2006, Web Version 5.1
 ***             http://physics.nist.gov/constants

 Speed of light in vacuum [m/s]                             2.99792458000000E+08
 Magnetic constant or permeability of vacuum [N/A**2]       1.25663706143592E-06
 Electric constant or permittivity of vacuum [F/m]          8.85418781762039E-12
 Planck constant (h) [J*s]                                  6.62606896000000E-34
 Planck constant (h-bar) [J*s]                              1.05457162825177E-34
 Elementary charge [C]                                      1.60217648700000E-19
 Electron mass [kg]                                         9.10938215000000E-31
 Electron g factor [ ]                                     -2.00231930436220E+00
 Proton mass [kg]                                           1.67262163700000E-27
 Fine-structure constant                                    7.29735253760000E-03
 Rydberg constant [1/m]                                     1.09737315685270E+07
 Avogadro constant [1/mol]                                  6.02214179000000E+23
 Boltzmann constant [J/K]                                   1.38065040000000E-23
 Atomic mass unit [kg]                                      1.66053878200000E-27
 Bohr radius [m]                                            5.29177208590000E-11

 *** Conversion factors ***

 [u] -> [a.u.]                                              1.82288848426455E+03
 [Angstrom] -> [Bohr] = [a.u.]                              1.88972613288564E+00
 [a.u.] = [Bohr] -> [Angstrom]                              5.29177208590000E-01
 [a.u.] -> [s]                                              2.41888432650478E-17
 [a.u.] -> [fs]                                             2.41888432650478E-02
 [a.u.] -> [J]                                              4.35974393937059E-18
 [a.u.] -> [N]                                              8.23872205491840E-08
 [a.u.] -> [K]                                              3.15774647902944E+05
 [a.u.] -> [kJ/mol]                                         2.62549961709828E+03
 [a.u.] -> [kcal/mol]                                       6.27509468713739E+02
 [a.u.] -> [Pa]                                             2.94210107994716E+13
 [a.u.] -> [bar]                                            2.94210107994716E+08
 [a.u.] -> [atm]                                            2.90362800883016E+08
 [a.u.] -> [eV]                                             2.72113838565563E+01
 [a.u.] -> [Hz]                                             6.57968392072181E+15
 [a.u.] -> [1/cm] (wave numbers)                            2.19474631370540E+05
 [a.u./Bohr**2] -> [1/cm]                                   5.14048714338585E+03
 

 CELL_TOP| Volume [angstrom^3]:                                     10221.806009
 CELL_TOP| Vector a [angstrom    16.869     0.000     0.000   |a| =    16.869000
 CELL_TOP| Vector b [angstrom    -8.434    14.609     0.000   |b| =    16.869015
 CELL_TOP| Vector c [angstrom     0.000     0.000    41.478   |c| =    41.478000
 CELL_TOP| Angle (b,c), alpha [degree]:                                90.000000
 CELL_TOP| Angle (a,c), beta  [degree]:                                90.000000
 CELL_TOP| Angle (a,b), gamma [degree]:                               119.999970
 CELL_TOP| Numerically orthorhombic:                                          NO
 
 GENERATE|  Preliminary Number of Bonds generated:                             0
 GENERATE|  Achieved consistency in connectivity generation.

 CELL| Volume [angstrom^3]:                                         10221.806009
 CELL| Vector a [angstrom]:      16.869     0.000     0.000   |a| =    16.869000
 CELL| Vector b [angstrom]:      -8.434    14.609     0.000   |b| =    16.869015
 CELL| Vector c [angstrom]:       0.000     0.000    41.478   |c| =    41.478000
 CELL| Angle (b,c), alpha [degree]:                                    90.000000
 CELL| Angle (a,c), beta  [degree]:                                    90.000000
 CELL| Angle (a,b), gamma [degree]:                                   119.999970
 CELL| Numerically orthorhombic:                                              NO

 CELL_REF| Volume [angstrom^3]:                                     10221.806009
 CELL_REF| Vector a [angstrom    16.869     0.000     0.000   |a| =    16.869000
 CELL_REF| Vector b [angstrom    -8.434    14.609     0.000   |b| =    16.869015
 CELL_REF| Vector c [angstrom     0.000     0.000    41.478   |c| =    41.478000
 CELL_REF| Angle (b,c), alpha [degree]:                                90.000000
 CELL_REF| Angle (a,c), beta  [degree]:                                90.000000
 CELL_REF| Angle (a,b), gamma [degree]:                               119.999970
 CELL_REF| Numerically orthorhombic:                                          NO

 *******************************************************************************
 *******************************************************************************
 **                                                                           **
 **     #####                         ##              ##                      **
 **    ##   ##            ##          ##              ##                      **
 **   ##     ##                       ##            ######                    **
 **   ##     ##  ##   ##  ##   #####  ##  ##   ####   ##    #####    #####    **
 **   ##     ##  ##   ##  ##  ##      ## ##   ##      ##   ##   ##  ##   ##   **
 **   ##  ## ##  ##   ##  ##  ##      ####     ###    ##   ######   ######    **
 **    ##  ###   ##   ##  ##  ##      ## ##      ##   ##   ##       ##        **
 **     #######   #####   ##   #####  ##  ##  ####    ##    #####   ##        **
 **           ##                                                    ##        **
 **                                                                           **
 **                                                ... make the atoms dance   **
 **                                                                           **
 **            Copyright (C) by CP2K developers group (2000-2022)             **
 **                      J. Chem. Phys. 152, 194103 (2020)                    **
 **                                                                           **
 *******************************************************************************

 DFT| Spin restricted Kohn-Sham (RKS) calculation                            RKS
 DFT| Multiplicity                                                             1
 DFT| Number of spin states                                                    1
 DFT| Charge                                                                   0
 DFT| Self-interaction correction (SIC)                                       NO
 DFT| Cutoffs: density                                              1.000000E-10
 DFT|          gradient                                             1.000000E-10
 DFT|          tau                                                  1.000000E-10
 DFT|          cutoff_smoothing_range                               0.000000E+00
 DFT| XC density smoothing                                                  NONE
 DFT| XC derivatives                                                          PW

 FUNCTIONAL| PBE:
 FUNCTIONAL| J.P.Perdew, K.Burke, M.Ernzerhof, Phys. Rev. Letter, vol. 77, n 18,
 FUNCTIONAL|  pp. 3865-3868, (1996){spin unpolarized}                           

 vdW POTENTIAL|                                                   Pair Potential
 vdW POTENTIAL|          DFT-D3 (Version 3.1)
 vdW POTENTIAL|          Potential Form: S. Grimme et al, JCP 132: 154104 (2010)
 vdW POTENTIAL|          Zero Damping
 vdW POTENTIAL|          Cutoff Radius [Bohr]:                             20.00
 vdW POTENTIAL|          s6 Scaling Factor:                               1.0000
 vdW POTENTIAL|          sr6 Scaling Factor:                              1.2170
 vdW POTENTIAL|          s8 Scaling Factor:                               0.7220
 vdW POTENTIAL|          Cutoff for CN calculation:                   0.1000E-05

 QS| Method:                                                                 GPW
 QS| Density plane wave grid type                        NON-SPHERICAL FULLSPACE
 QS| Number of grid levels:                                                    4
 QS| Density cutoff [a.u.]:                                                200.0
 QS| Multi grid cutoff [a.u.]: 1) grid level                               200.0
 QS|                           2) grid level                                66.7
 QS|                           3) grid level                                22.2
 QS|                           4) grid level                                 7.4
 QS| Grid level progression factor:                                          3.0
 QS| Relative density cutoff [a.u.]:                                        20.0
 QS| Interaction thresholds: eps_pgf_orb:                                3.2E-07
 QS|                         eps_filter_matrix:                          0.0E+00
 QS|                         eps_core_charge:                            1.0E-15
 QS|                         eps_rho_gspace:                             1.0E-13
 QS|                         eps_rho_rspace:                             1.0E-13
 QS|                         eps_gvg_rspace:                             3.2E-07
 QS|                         eps_ppl:                                    1.0E-02
 QS|                         eps_ppnl:                                   3.2E-09


 ATOMIC KIND INFORMATION

  1. Atomic kind: O                                     Number of atoms:     230

     Orbital Basis Set                                        DZVP-MOLOPT-SR-GTH

       Number of orbital shell sets:                                           1
       Number of orbital shells:                                               5
       Number of primitive Cartesian functions:                                5
       Number of Cartesian basis functions:                                   14
       Number of spherical basis functions:                                   13
       Norm type:                                                              2

       Normalised Cartesian orbitals:

                        Set   Shell   Orbital            Exponent    Coefficient

                          1       1    2s               10.389228       0.396646
                                                         3.849621       0.208811
                                                         1.388401      -0.301641
                                                         0.496955      -0.274061
                                                         0.162492      -0.033677

                          1       2    3s               10.389228       0.303673
                                                         3.849621       0.240943
                                                         1.388401      -0.313066
                                                         0.496955      -0.043055
                                                         0.162492       0.213991

                          1       3    3px              10.389228      -1.530415
                                                         3.849621      -1.371928
                                                         1.388401      -0.761951
                                                         0.496955      -0.253695
                                                         0.162492      -0.035541
                          1       3    3py              10.389228      -1.530415
                                                         3.849621      -1.371928
                                                         1.388401      -0.761951
                                                         0.496955      -0.253695
                                                         0.162492      -0.035541
                          1       3    3pz              10.389228      -1.530415
                                                         3.849621      -1.371928
                                                         1.388401      -0.761951
                                                         0.496955      -0.253695
                                                         0.162492      -0.035541

                          1       4    4px              10.389228      -0.565392
                                                         3.849621      -0.038231
                                                         1.388401      -0.382373
                                                         0.496955       0.179070
                                                         0.162492       0.122714
                          1       4    4py              10.389228      -0.565392
                                                         3.849621      -0.038231
                                                         1.388401      -0.382373
                                                         0.496955       0.179070
                                                         0.162492       0.122714
                          1       4    4pz              10.389228      -0.565392
                                                         3.849621      -0.038231
                                                         1.388401      -0.382373
                                                         0.496955       0.179070
                                                         0.162492       0.122714

                          1       5    4dx2             10.389228       1.867377
                                                         3.849621       0.670994
                                                         1.388401       1.353441
                                                         0.496955       0.273538
                                                         0.162492       0.006620
                          1       5    4dxy             10.389228       3.234392
                                                         3.849621       1.162195
                                                         1.388401       2.344229
                                                         0.496955       0.473781
                                                         0.162492       0.011466
                          1       5    4dxz             10.389228       3.234392
                                                         3.849621       1.162195
                                                         1.388401       2.344229
                                                         0.496955       0.473781
                                                         0.162492       0.011466
                          1       5    4dy2             10.389228       1.867377
                                                         3.849621       0.670994
                                                         1.388401       1.353441
                                                         0.496955       0.273538
                                                         0.162492       0.006620
                          1       5    4dyz             10.389228       3.234392
                                                         3.849621       1.162195
                                                         1.388401       2.344229
                                                         0.496955       0.473781
                                                         0.162492       0.011466
                          1       5    4dz2             10.389228       1.867377
                                                         3.849621       0.670994
                                                         1.388401       1.353441
                                                         0.496955       0.273538
                                                         0.162492       0.006620

       Atomic covalent radius [Angstrom]:                                  0.730

       Atomic van der Waals radius [Angstrom]:                             1.520

     GTH Potential information for                                    GTH-PBE-q6

       Description:                       Goedecker-Teter-Hutter pseudopotential
                                           Goedecker et al., PRB 54, 1703 (1996)
                                          Hartwigsen et al., PRB 58, 3641 (1998)
                                                      Krack, TCA 114, 145 (2005)

       Gaussian exponent of the core charge distribution:               8.360253
       Electronic configuration (s p d ...):                               2   4

       Parameters of the local part of the GTH pseudopotential:

                          rloc        C1          C2          C3          C4
                        0.244554  -16.667215    2.487311

       Parameters of the non-local part of the GTH pseudopotential:

                   l      r(l)      h(i,j,l)

                   0    0.220956   18.337458
                   1    0.211332

  2. Atomic kind: H                                     Number of atoms:     460

     Orbital Basis Set                                        DZVP-MOLOPT-SR-GTH

       Number of orbital shell sets:                                           1
       Number of orbital shells:                                               3
       Number of primitive Cartesian functions:                                5
       Number of Cartesian basis functions:                                    5
       Number of spherical basis functions:                                    5
       Norm type:                                                              2

       Normalised Cartesian orbitals:

                        Set   Shell   Orbital            Exponent    Coefficient

                          1       1    2s               10.068468      -0.133023
                                                         2.680223      -0.177618
                                                         0.791502      -0.258419
                                                         0.239116      -0.107525
                                                         0.082193      -0.014019

                          1       2    3s               10.068468       0.344673
                                                         2.680223       1.819821
                                                         0.791502      -0.999069
                                                         0.239116       0.017430
                                                         0.082193       0.082660

                          1       3    3px              10.068468       0.155326
                                                         2.680223       0.367157
                                                         0.791502       0.311480
                                                         0.239116       0.080105
                                                         0.082193       0.033440
                          1       3    3py              10.068468       0.155326
                                                         2.680223       0.367157
                                                         0.791502       0.311480
                                                         0.239116       0.080105
                                                         0.082193       0.033440
                          1       3    3pz              10.068468       0.155326
                                                         2.680223       0.367157
                                                         0.791502       0.311480
                                                         0.239116       0.080105
                                                         0.082193       0.033440

       Atomic covalent radius [Angstrom]:                                  0.320

       Atomic van der Waals radius [Angstrom]:                             1.090

     GTH Potential information for                                    GTH-PBE-q1

       Description:                       Goedecker-Teter-Hutter pseudopotential
                                           Goedecker et al., PRB 54, 1703 (1996)
                                          Hartwigsen et al., PRB 58, 3641 (1998)
                                                      Krack, TCA 114, 145 (2005)

       Gaussian exponent of the core charge distribution:              12.500000
       Electronic configuration (s p d ...):                                   1

       Parameters of the local part of the GTH pseudopotential:

                          rloc        C1          C2          C3          C4
                        0.200000   -4.178900    0.724463

  3. Atomic kind: Pt                                    Number of atoms:     216

     Orbital Basis Set                      DZVP-A5-Q10-323-MOL-T1-DERIVED_SET-1

       Number of orbital shell sets:                                           1
       Number of orbital shells:                                               6
       Number of primitive Cartesian functions:                                5
       Number of Cartesian basis functions:                                   23
       Number of spherical basis functions:                                   20
       Norm type:                                                              2

       Normalised Cartesian orbitals:

                        Set   Shell   Orbital            Exponent    Coefficient

                          1       1    2s                2.521825       0.177473
                                                         1.453920      -0.063399
                                                         0.614053      -0.407089
                                                         0.232656       0.262254
                                                         0.074788       0.047371

                          1       2    3s                2.521825      -0.049056
                                                         1.453920       0.044904
                                                         0.614053      -0.009756
                                                         0.232656      -0.144709
                                                         0.074788       0.144085

                          1       3    3px               2.521825      -0.317572
                                                         1.453920       0.534826
                                                         0.614053      -0.489458
                                                         0.232656       0.245631
                                                         0.074788       0.018221
                          1       3    3py               2.521825      -0.317572
                                                         1.453920       0.534826
                                                         0.614053      -0.489458
                                                         0.232656       0.245631
                                                         0.074788       0.018221
                          1       3    3pz               2.521825      -0.317572
                                                         1.453920       0.534826
                                                         0.614053      -0.489458
                                                         0.232656       0.245631
                                                         0.074788       0.018221

                          1       4    4dx2              2.521825       3.008522
                                                         1.453920      -1.224251
                                                         0.614053       0.225691
                                                         0.232656       0.125144
                                                         0.074788      -0.015348
                          1       4    4dxy              2.521825       5.210912
                                                         1.453920      -2.120465
                                                         0.614053       0.390909
                                                         0.232656       0.216756
                                                         0.074788      -0.026584
                          1       4    4dxz              2.521825       5.210912
                                                         1.453920      -2.120465
                                                         0.614053       0.390909
                                                         0.232656       0.216756
                                                         0.074788      -0.026584
                          1       4    4dy2              2.521825       3.008522
                                                         1.453920      -1.224251
                                                         0.614053       0.225691
                                                         0.232656       0.125144
                                                         0.074788      -0.015348
                          1       4    4dyz              2.521825       5.210912
                                                         1.453920      -2.120465
                                                         0.614053       0.390909
                                                         0.232656       0.216756
                                                         0.074788      -0.026584
                          1       4    4dz2              2.521825       3.008522
                                                         1.453920      -1.224251
                                                         0.614053       0.225691
                                                         0.232656       0.125144
                                                         0.074788      -0.015348

                          1       5    5dx2              2.521825       0.698026
                                                         1.453920      -1.511486
                                                         0.614053      -0.335394
                                                         0.232656      -0.025564
                                                         0.074788      -0.002699
                          1       5    5dxy              2.521825       1.209017
                                                         1.453920      -2.617970
                                                         0.614053      -0.580920
                                                         0.232656      -0.044277
                                                         0.074788      -0.004674
                          1       5    5dxz              2.521825       1.209017
                                                         1.453920      -2.617970
                                                         0.614053      -0.580920
                                                         0.232656      -0.044277
                                                         0.074788      -0.004674
                          1       5    5dy2              2.521825       0.698026
                                                         1.453920      -1.511486
                                                         0.614053      -0.335394
                                                         0.232656      -0.025564
                                                         0.074788      -0.002699
                          1       5    5dyz              2.521825       1.209017
                                                         1.453920      -2.617970
                                                         0.614053      -0.580920
                                                         0.232656      -0.044277
                                                         0.074788      -0.004674
                          1       5    5dz2              2.521825       0.698026
                                                         1.453920      -1.511486
                                                         0.614053      -0.335394
                                                         0.232656      -0.025564
                                                         0.074788      -0.002699

                          1       6    6dx2              2.521825       0.831079
                                                         1.453920      -0.709226
                                                         0.614053      -0.137351
                                                         0.232656       0.068642
                                                         0.074788       0.011745
                          1       6    6dxy              2.521825       1.439472
                                                         1.453920      -1.228415
                                                         0.614053      -0.237899
                                                         0.232656       0.118891
                                                         0.074788       0.020343
                          1       6    6dxz              2.521825       1.439472
                                                         1.453920      -1.228415
                                                         0.614053      -0.237899
                                                         0.232656       0.118891
                                                         0.074788       0.020343
                          1       6    6dy2              2.521825       0.831079
                                                         1.453920      -0.709226
                                                         0.614053      -0.137351
                                                         0.232656       0.068642
                                                         0.074788       0.011745
                          1       6    6dyz              2.521825       1.439472
                                                         1.453920      -1.228415
                                                         0.614053      -0.237899
                                                         0.232656       0.118891
                                                         0.074788       0.020343
                          1       6    6dz2              2.521825       0.831079
                                                         1.453920      -0.709226
                                                         0.614053      -0.137351
                                                         0.232656       0.068642
                                                         0.074788       0.011745

       Atomic covalent radius [Angstrom]:                                  1.300

       Atomic van der Waals radius [Angstrom]:                             1.750

     GTH Potential information for                                   GTH-PBE-q10

       Description:                       Goedecker-Teter-Hutter pseudopotential
                                           Goedecker et al., PRB 54, 1703 (1996)
                                          Hartwigsen et al., PRB 58, 3641 (1998)
                                                      Krack, TCA 114, 145 (2005)

       Gaussian exponent of the core charge distribution:               1.317676
       Electronic configuration (s p d ...):                           1   0   9

       Parameters of the local part of the GTH pseudopotential:

                          rloc        C1          C2          C3          C4
                        0.616000   11.313635

       Parameters of the non-local part of the GTH pseudopotential:

                   l      r(l)      h(i,j,l)

                   0    0.550904    4.733491   -1.784594
                                   -1.784594    2.303901
                   1    0.674138    2.534798   -1.778066
                                   -1.778066    2.103836
                   2    0.457392   -7.264011    2.558665
                                    2.558665   -2.901253


 MOLECULE KIND INFORMATION


 All atoms are their own molecule, skipping detailed information


 TOTAL NUMBERS AND MAXIMUM NUMBERS

  Total number of            - Atomic kinds:                                   3
                             - Atoms:                                        906
                             - Shell sets:                                   906
                             - Shells:                                      3826
                             - Primitive Cartesian functions:               4530
                             - Cartesian basis functions:                  10488
                             - Spherical basis functions:                   9610

  Maximum angular momentum of- Orbital basis functions:                        2
                             - Local part of the GTH pseudopotential:          2
                             - Non-local part of the GTH pseudopotential:      4


 MODULE QUICKSTEP:  ATOMIC COORDINATES IN angstrom

 Atom  Kind  Element       X           Y           Z          Z(eff)       Mass
    1   1 O    8       3.320000   -0.950000   13.330001       6.0000     15.9994
    2   2 H    1       2.560000   -0.290000   13.560000       1.0000      1.0079
    3   2 H    1       3.060000   -1.690000   12.690001       1.0000      1.0079
    4   1 O    8       5.210000   -4.000000   11.360001       6.0000     15.9994
    5   2 H    1       5.610001   -3.740000   12.230001       1.0000      1.0079
    6   2 H    1       5.640000   -4.820000   10.950001       1.0000      1.0079
    7   1 O    8       1.530000   -1.660000   17.120001       6.0000     15.9994
    8   2 H    1       2.080000   -1.050000   17.680000       1.0000      1.0079
    9   2 H    1       0.910000   -1.240000   16.520000       1.0000      1.0079
   10   1 O    8       0.830000    2.420000   25.760002       6.0000     15.9994
   11   2 H    1       1.510000    2.220000   26.440001       1.0000      1.0079
   12   2 H    1       0.890000    3.350000   25.540001       1.0000      1.0079
   13   1 O    8       4.780000    1.560000   32.010002       6.0000     15.9994
   14   2 H    1       4.110000    2.320000   31.930000       1.0000      1.0079
   15   2 H    1       4.990000    1.300000   31.060001       1.0000      1.0079
   16   1 O    8      -1.740000   12.410001    9.600000       6.0000     15.9994
   17   2 H    1      -2.130000   12.490001    8.660001       1.0000      1.0079
   18   2 H    1      -2.250000   11.710000   10.100000       1.0000      1.0079
   19   1 O    8       0.810000   10.800000   15.140000       6.0000     15.9994
   20   2 H    1       1.180000   10.230000   14.430000       1.0000      1.0079
   21   2 H    1       1.470000   11.450001   15.250001       1.0000      1.0079
   22   1 O    8       0.910000   13.700001   12.760000       6.0000     15.9994
   23   2 H    1       0.460000   13.800001   11.890000       1.0000      1.0079
   24   2 H    1       8.660001   -1.400000   13.190001       1.0000      1.0079
   25   1 O    8      -2.430000    0.640000   20.090000       6.0000     15.9994
   26   2 H    1      -2.480000   -0.370000   20.030001       1.0000      1.0079
   27   2 H    1      -2.770000    0.740000   21.030003       1.0000      1.0079
   28   1 O    8       3.720000    8.790001   32.400002       6.0000     15.9994
   29   2 H    1       3.970000    9.640000   31.840002       1.0000      1.0079
   30   2 H    1       3.030000    9.140000   33.030003       1.0000      1.0079
   31   1 O    8       1.730000    1.580000   17.370001       6.0000     15.9994
   32   2 H    1       1.530000    0.950000   16.730001       1.0000      1.0079
   33   2 H    1       2.650000    1.350000   17.700001       1.0000      1.0079
   34   1 O    8      -2.930000    9.300001   21.090002       6.0000     15.9994
   35   2 H    1      -3.000000   10.210000   21.380001       1.0000      1.0079
   36   2 H    1      -2.200000    9.430000   20.340002       1.0000      1.0079
   37   1 O    8       4.660000   -7.550001   22.350002       6.0000     15.9994
   38   2 H    1       3.730000   -7.200000   22.160000       1.0000      1.0079
   39   2 H    1       5.200000   -6.780000   21.890001       1.0000      1.0079
   40   1 O    8      11.400002   19.960001    9.180000       6.0000     15.9994
   41   2 H    1      11.950001   19.890001    8.410000       1.0000      1.0079
   42   2 H    1      10.860001   19.110001    9.100000       1.0000      1.0079
   43   1 O    8      13.940001   -2.030000   21.000002       6.0000     15.9994
   44   2 H    1      14.710001   -2.140000   21.550003       1.0000      1.0079
   45   2 H    1      14.040001   -2.810000   20.420000       1.0000      1.0079
   46   1 O    8      -8.620001   -3.720000   25.190001       6.0000     15.9994
   47   2 H    1      -8.190001   -2.930000   24.790001       1.0000      1.0079
   48   2 H    1      -9.540001   -3.500000   25.530003       1.0000      1.0079
   49   1 O    8      -8.530001   15.390000   10.680000       6.0000     15.9994
   50   2 H    1      -9.420000   15.120001   11.000000       1.0000      1.0079
   51   2 H    1      -8.540000   16.210001   10.140000       1.0000      1.0079
   52   1 O    8       1.880000   -2.010000   20.240002       6.0000     15.9994
   53   2 H    1       1.080000   -2.240000   19.700001       1.0000      1.0079
   54   2 H    1       2.540000   -1.610000   19.590000       1.0000      1.0079
   55   1 O    8     -16.639999   -1.180000   22.440002       6.0000     15.9994
   56   2 H    1     -16.740000   -0.200000   22.520000       1.0000      1.0079
   57   2 H    1     -16.160000   -1.360000   21.610001       1.0000      1.0079
   58   1 O    8       7.880001    3.000000   29.710003       6.0000     15.9994
   59   2 H    1       7.910000    2.930000   30.700001       1.0000      1.0079
   60   2 H    1       8.710001    3.400000   29.350002       1.0000      1.0079
   61   1 O    8     -18.560001   25.470001   27.290001       6.0000     15.9994
   62   2 H    1     -19.030001   24.680002   27.650002       1.0000      1.0079
   63   2 H    1      -0.810000   25.500002   27.660000       1.0000      1.0079
   64   1 O    8      -1.180000   -8.910000   14.490002       6.0000     15.9994
   65   2 H    1      -1.360000   -8.740000   13.460001       1.0000      1.0079
   66   2 H    1      16.630001   -8.820001   14.820002       1.0000      1.0079
   67   1 O    8      13.140000    1.780000    9.100000       6.0000     15.9994
   68   2 H    1       4.460000   15.950001    8.260000       1.0000      1.0079
   69   2 H    1      12.370001    2.360000    9.210001       1.0000      1.0079
   70   1 O    8     -13.250000   13.090000   26.910002       6.0000     15.9994
   71   2 H    1     -13.440001   13.890000   27.470001       1.0000      1.0079
   72   2 H    1     -13.490001   12.330000   27.450001       1.0000      1.0079
   73   1 O    8       0.070000    4.040000   22.830000       6.0000     15.9994
   74   2 H    1       0.750000    4.440001   22.250002       1.0000      1.0079
   75   2 H    1      -0.890000    4.220000   22.600000       1.0000      1.0079
   76   1 O    8      -4.750000    2.520000   30.020000       6.0000     15.9994
   77   2 H    1      -5.170000    2.330000   30.890003       1.0000      1.0079
   78   2 H    1      -4.220000    3.370000   29.990002       1.0000      1.0079
   79   1 O    8     -10.820000   -0.530000   24.540003       6.0000     15.9994
   80   2 H    1     -10.170001    0.160000   24.860001       1.0000      1.0079
   81   2 H    1     -11.640000   -0.250000   24.960001       1.0000      1.0079
   82   1 O    8       9.480001    0.640000    9.150001       6.0000     15.9994
   83   2 H    1       8.690001    0.310000    9.640000       1.0000      1.0079
   84   2 H    1       9.270000    0.770000    8.190001       1.0000      1.0079
   85   1 O    8      -7.870001   11.020000   12.350000       6.0000     15.9994
   86   2 H    1      -8.570001   10.780001   11.690001       1.0000      1.0079
   87   2 H    1      -7.570000   10.180000   12.820001       1.0000      1.0079
   88   1 O    8       6.800000    2.050000   19.330002       6.0000     15.9994
   89   2 H    1      -9.550000    2.850000   19.120001       1.0000      1.0079
   90   2 H    1       6.620001    2.190000   20.320000       1.0000      1.0079
   91   1 O    8       5.880000    8.130000   33.530003       6.0000     15.9994
   92   2 H    1       6.120000    7.240000   33.150002       1.0000      1.0079
   93   2 H    1       4.870000    8.250000   33.200001       1.0000      1.0079
   94   1 O    8       2.840000   13.450001    9.560000       6.0000     15.9994
   95   2 H    1       2.630000   14.380001    9.460000       1.0000      1.0079
   96   2 H    1       2.040000   12.930001    9.270000       1.0000      1.0079
   97   1 O    8      -2.390000   -0.310000   11.640000       6.0000     15.9994
   98   2 H    1      -2.810000    0.380000   12.180000       1.0000      1.0079
   99   2 H    1      -2.110000   -0.940000   12.340001       1.0000      1.0079
  100   1 O    8       1.830000   -4.340000   32.490002       6.0000     15.9994
  101   2 H    1       2.400000   -4.790000   33.150002       1.0000      1.0079
  102   2 H    1       2.460000   -3.950000   31.860001       1.0000      1.0079
  103   1 O    8      12.160001    1.920000   18.940001       6.0000     15.9994
  104   2 H    1      12.990000    1.320000   19.210001       1.0000      1.0079
  105   2 H    1      -4.780000    2.460000   19.730000       1.0000      1.0079
  106   1 O    8      -4.930000    7.940001   15.150002       6.0000     15.9994
  107   2 H    1      -5.330000    8.560000   15.830001       1.0000      1.0079
  108   2 H    1      -4.060000    8.290001   14.890001       1.0000      1.0079
  109   1 O    8      11.170001    6.580000    9.420000       6.0000     15.9994
  110   2 H    1      10.650001    6.750000   10.230000       1.0000      1.0079
  111   2 H    1      10.640000    6.690001    8.590000       1.0000      1.0079
  112   1 O    8     -14.710001    8.760000   13.610001       6.0000     15.9994
  113   2 H    1     -13.790001    8.650001   13.970001       1.0000      1.0079
  114   2 H    1     -14.660001    9.070001   12.650002       1.0000      1.0079
  115   1 O    8      -0.960000   14.500000   10.770000       6.0000     15.9994
  116   2 H    1      -1.200000   13.480000   10.480001       1.0000      1.0079
  117   2 H    1      -1.550000   14.510001   11.560000       1.0000      1.0079
  118   1 O    8      -8.970000   10.720000   22.460001       6.0000     15.9994
  119   2 H    1      -8.320000   11.380000   22.610001       1.0000      1.0079
  120   2 H    1      -9.360001   10.830001   23.340000       1.0000      1.0079
  121   1 O    8      -5.990000    5.740000   25.980000       6.0000     15.9994
  122   2 H    1      -6.340000    4.810000   25.940001       1.0000      1.0079
  123   2 H    1      -6.710000    6.350000   25.680000       1.0000      1.0079
  124   1 O    8     -13.060001    4.070000   24.940002       6.0000     15.9994
  125   2 H    1     -20.559999   18.520000   25.190001       1.0000      1.0079
  126   2 H    1     -12.970000    4.730000   24.260002       1.0000      1.0079
  127   1 O    8      13.400001   -8.350000   15.790001       6.0000     15.9994
  128   2 H    1      14.140000   -8.680000   15.250001       1.0000      1.0079
  129   2 H    1       4.320000    6.570000   15.080000       1.0000      1.0079
  130   1 O    8       6.710000   -1.840000   32.340004       6.0000     15.9994
  131   2 H    1       5.710001   -1.760000   32.250000       1.0000      1.0079
  132   2 H    1       7.010000   -2.020000   31.450003       1.0000      1.0079
  133   1 O    8     -16.280001   19.150002   22.700003       6.0000     15.9994
  134   2 H    1     -15.600000   19.860001   22.910002       1.0000      1.0079
  135   2 H    1     -17.050001   19.580000   22.310001       1.0000      1.0079
  136   1 O    8      -2.910000    0.820000   22.830000       6.0000     15.9994
  137   2 H    1      -1.940000    1.150000   22.770002       1.0000      1.0079
  138   2 H    1      -2.970000   -0.110000   23.380001       1.0000      1.0079
  139   1 O    8      -1.800000    2.490000   26.560001       6.0000     15.9994
  140   2 H    1      -0.940000    2.550000   26.190002       1.0000      1.0079
  141   2 H    1      -1.640000    3.090000   27.299999       1.0000      1.0079
  142   1 O    8       9.070001    9.040001    8.710001       6.0000     15.9994
  143   2 H    1       9.180000    9.510000    7.830000       1.0000      1.0079
  144   2 H    1       8.650001    9.620001    9.270000       1.0000      1.0079
  145   1 O    8      -8.630000   19.960001   11.510000       6.0000     15.9994
  146   2 H    1       9.070001   19.910000   12.110001       1.0000      1.0079
  147   2 H    1      -9.230001   20.580002   11.990000       1.0000      1.0079
  148   1 O    8     -13.390001   -0.490000   18.890001       6.0000     15.9994
  149   2 H    1     -13.770000    0.070000   19.620001       1.0000      1.0079
  150   2 H    1     -12.420001   -0.620000   19.200001       1.0000      1.0079
  151   1 O    8       3.440000    8.300000   22.240002       6.0000     15.9994
  152   2 H    1       3.850000    8.780001   21.450003       1.0000      1.0079
  153   2 H    1       2.500000    8.030001   22.020000       1.0000      1.0079
  154   1 O    8      16.090000   -4.200000   32.550003       6.0000     15.9994
  155   2 H    1      15.450001   -4.880000   32.830002       1.0000      1.0079
  156   2 H    1      16.930000   -4.650001   32.400002       1.0000      1.0079
  157   1 O    8      -5.590000   -4.240000   23.960001       6.0000     15.9994
  158   2 H    1      -4.810000   -3.810000   24.330002       1.0000      1.0079
  159   2 H    1      -5.250000   -4.980001   23.410000       1.0000      1.0079
  160   1 O    8       5.630000   -0.420000   16.020000       6.0000     15.9994
  161   2 H    1       4.930000   -1.110000   15.880001       1.0000      1.0079
  162   2 H    1       5.260000    0.200000   16.700001       1.0000      1.0079
  163   1 O    8       9.980000    2.180000   22.800003       6.0000     15.9994
  164   2 H    1       9.430000    1.510000   22.440002       1.0000      1.0079
  165   2 H    1       9.580001    3.070000   22.660000       1.0000      1.0079
  166   1 O    8       0.880000   18.760000   11.750001       6.0000     15.9994
  167   2 H    1       1.470000   18.370001   11.040001       1.0000      1.0079
  168   2 H    1       1.150000   18.150002   12.470001       1.0000      1.0079
  169   1 O    8     -22.820000   17.770000   31.290001       6.0000     15.9994
  170   2 H    1      -6.520000   17.940001   30.470001       1.0000      1.0079
  171   2 H    1      -5.740000   18.640001   31.870001       1.0000      1.0079
  172   1 O    8      -1.640000    0.450000   17.390001       6.0000     15.9994
  173   2 H    1      -0.910000    0.550000   16.810001       1.0000      1.0079
  174   2 H    1      -1.320000    0.820000   18.250000       1.0000      1.0079
  175   1 O    8       3.590000   11.300000   30.760002       6.0000     15.9994
  176   2 H    1       4.300000   11.860001   31.210001       1.0000      1.0079
  177   2 H    1       3.700000   11.210001   29.750002       1.0000      1.0079
  178   1 O    8      -5.570001    2.930000   32.610001       6.0000     15.9994
  179   2 H    1      -5.970000    2.060000   32.820000       1.0000      1.0079
  180   2 H    1      -4.650001    2.990000   32.940002       1.0000      1.0079
  181   1 O    8      10.610001    5.510000   19.770000       6.0000     15.9994
  182   2 H    1      10.850000    6.410000   19.850002       1.0000      1.0079
  183   2 H    1      10.830001    4.990000   20.470001       1.0000      1.0079
  184   1 O    8       8.410000    7.540000   28.000002       6.0000     15.9994
  185   2 H    1       8.770000    7.940001   27.160000       1.0000      1.0079
  186   2 H    1       8.290001    6.600000   27.830002       1.0000      1.0079
  187   1 O    8      -7.170000   15.630001   13.260001       6.0000     15.9994
  188   2 H    1      -7.210000   16.550001   13.680000       1.0000      1.0079
  189   2 H    1      -7.630000   15.680000   12.380000       1.0000      1.0079
  190   1 O    8      -2.610000   11.740000   26.260002       6.0000     15.9994
  191   2 H    1      -2.560000   12.500000   25.580002       1.0000      1.0079
  192   2 H    1      -3.270000   11.090001   25.910000       1.0000      1.0079
  193   1 O    8      -3.490000    4.970000   29.740002       6.0000     15.9994
  194   2 H    1      -4.160000    5.560000   29.280003       1.0000      1.0079
  195   2 H    1      -3.530000    5.300000   30.730001       1.0000      1.0079
  196   1 O    8      -9.230001    0.620000   33.290001       6.0000     15.9994
  197   2 H    1      -8.300000    0.300000   33.230003       1.0000      1.0079
  198   2 H    1      -9.780001   -0.120000   33.000000       1.0000      1.0079
  199   1 O    8      -3.550000    2.920000   12.190001       6.0000     15.9994
  200   2 H    1      -3.180000    2.890000   11.270000       1.0000      1.0079
  201   2 H    1      -4.360000    2.360000   12.100000       1.0000      1.0079
  202   1 O    8      -4.380000   16.520000   23.450001       6.0000     15.9994
  203   2 H    1      -4.640000   17.320002   23.920002       1.0000      1.0079
  204   2 H    1      -4.810000   15.770000   23.900002       1.0000      1.0079
  205   1 O    8      15.040001   -1.790000    9.350000       6.0000     15.9994
  206   2 H    1       7.560000   13.130001    9.070001       1.0000      1.0079
  207   2 H    1      14.620000   -0.890000    9.610001       1.0000      1.0079
  208   1 O    8      -7.480001   -6.970000   21.930000       6.0000     15.9994
  209   2 H    1      -7.570000   -7.640000   21.230001       1.0000      1.0079
  210   2 H    1      -7.600000   -6.120000   21.320002       1.0000      1.0079
  211   1 O    8       0.850000   -1.820000   25.050001       6.0000     15.9994
  212   2 H    1       0.590000   -1.520000   24.139999       1.0000      1.0079
  213   2 H    1       0.350000   -1.380000   25.790003       1.0000      1.0079
  214   1 O    8       2.610000   -6.010000   19.580000       6.0000     15.9994
  215   2 H    1       2.700000   -5.490000   18.750002       1.0000      1.0079
  216   2 H    1       3.380000   -5.830000   20.160000       1.0000      1.0079
  217   1 O    8      -5.390000    6.350000   28.450001       6.0000     15.9994
  218   2 H    1      -5.420001    7.320001   28.370001       1.0000      1.0079
  219   2 H    1      -5.590000    6.010000   27.520000       1.0000      1.0079
  220   1 O    8       5.030000    9.630001   20.220001       6.0000     15.9994
  221   2 H    1       5.760000    8.970000   20.080002       1.0000      1.0079
  222   2 H    1       4.480000    9.430000   19.430000       1.0000      1.0079
  223   1 O    8      -8.060000    8.590000   21.300001       6.0000     15.9994
  224   2 H    1       9.600000    8.980000   20.770000       1.0000      1.0079
  225   2 H    1      -8.420001    9.300001   21.840000       1.0000      1.0079
  226   1 O    8      -2.230000   18.730001    9.000000       6.0000     15.9994
  227   2 H    1      -2.650000   19.180000    8.260000       1.0000      1.0079
  228   2 H    1      14.520000   17.730001    8.840000       1.0000      1.0079
  229   1 O    8      -1.020000   10.500001   33.200001       6.0000     15.9994
  230   2 H    1      -1.730000    9.870001   32.960003       1.0000      1.0079
  231   2 H    1      -1.280000   11.400002   32.800003       1.0000      1.0079
  232   1 O    8      -3.000000    8.960000   32.240002       6.0000     15.9994
  233   2 H    1      -3.710000    8.730000   32.850002       1.0000      1.0079
  234   2 H    1      -3.470000    9.350000   31.440001       1.0000      1.0079
  235   1 O    8     -10.500001    7.650001   24.100000       6.0000     15.9994
  236   2 H    1     -10.610001    6.990001   23.360003       1.0000      1.0079
  237   2 H    1     -11.140001    7.400000   24.799999       1.0000      1.0079
  238   1 O    8      10.100000   -4.320000   33.209999       6.0000     15.9994
  239   2 H    1       1.710000   11.080000   32.650002       1.0000      1.0079
  240   2 H    1       9.150001   -4.670000   33.190002       1.0000      1.0079
  241   1 O    8      -1.440000   -2.140000   13.560000       6.0000     15.9994
  242   2 H    1      -2.390000   -2.490000   13.660001       1.0000      1.0079
  243   2 H    1      -0.830000   -2.900000   13.550000       1.0000      1.0079
  244   1 O    8       4.240000    2.510000   12.380000       6.0000     15.9994
  245   2 H    1       4.990000    1.920000   12.480001       1.0000      1.0079
  246   2 H    1       3.810000    2.660000   13.260001       1.0000      1.0079
  247   1 O    8      10.840001   -1.610000   15.620001       6.0000     15.9994
  248   2 H    1      11.510000   -1.610000   16.340000       1.0000      1.0079
  249   2 H    1      10.200001   -0.830000   15.780001       1.0000      1.0079
  250   1 O    8       2.730000   15.750000   27.900002       6.0000     15.9994
  251   2 H    1       2.590000   16.450001   27.210003       1.0000      1.0079
  252   2 H    1       3.110000   16.270000   28.670002       1.0000      1.0079
  253   1 O    8      -2.350000   16.010000    9.040001       6.0000     15.9994
  254   2 H    1      -2.060000   15.350000    9.730001       1.0000      1.0079
  255   2 H    1      -2.160000   15.540000    8.100000       1.0000      1.0079
  256   1 O    8      -2.620000   -4.010000   24.520000       6.0000     15.9994
  257   2 H    1      -2.260000   -4.000000   25.430002       1.0000      1.0079
  258   2 H    1      -2.620000   -4.960000   24.280003       1.0000      1.0079
  259   1 O    8      -9.400001    4.810000   27.510002       6.0000     15.9994
  260   2 H    1      -9.350000    4.340000   26.590002       1.0000      1.0079
  261   2 H    1     -10.210000    4.400000   27.900002       1.0000      1.0079
  262   1 O    8      -1.250000    7.370000   26.550003       6.0000     15.9994
  263   2 H    1      -0.730000    7.610001   25.740002       1.0000      1.0079
  264   2 H    1      -2.120000    7.370000   26.130001       1.0000      1.0079
  265   1 O    8      -7.560000   -7.770000   17.000000       6.0000     15.9994
  266   2 H    1      -8.530001   -7.670000   16.980001       1.0000      1.0079
  267   2 H    1       0.970000    5.950000   16.510000       1.0000      1.0079
  268   1 O    8      -7.240000    6.870000   30.590002       6.0000     15.9994
  269   2 H    1      -6.840000    6.050000   31.070002       1.0000      1.0079
  270   2 H    1      -7.130001    6.760001   29.630001       1.0000      1.0079
  271   1 O    8       8.600000    9.660000   17.010000       6.0000     15.9994
  272   2 H    1       8.170000    9.150001   16.210001       1.0000      1.0079
  273   2 H    1       8.140000    9.180000   17.830002       1.0000      1.0079
  274   1 O    8       0.980000    5.970000   19.780001       6.0000     15.9994
  275   2 H    1       0.250000    5.280000   19.660000       1.0000      1.0079
  276   2 H    1       1.150000    6.400001   18.890001       1.0000      1.0079
  277   1 O    8      -3.500000    3.440000   17.160000       6.0000     15.9994
  278   2 H    1     -20.900002    2.700000   17.640001       1.0000      1.0079
  279   2 H    1      -2.670000    3.540000   17.740000       1.0000      1.0079
  280   1 O    8      14.760000    1.300000   29.850002       6.0000     15.9994
  281   2 H    1      13.900002    1.700000   29.970001       1.0000      1.0079
  282   2 H    1      14.710001    0.390000   29.560001       1.0000      1.0079
  283   1 O    8       1.940000  -14.890001   18.540001       6.0000     15.9994
  284   2 H    1      -5.940001    0.530000   18.610001       1.0000      1.0079
  285   2 H    1       2.540000  -15.610001   18.340000       1.0000      1.0079
  286   1 O    8     -19.050001   16.990002   21.940001       6.0000     15.9994
  287   2 H    1      -2.000000   17.889999   22.280003       1.0000      1.0079
  288   2 H    1     -19.820002   16.710001   22.520000       1.0000      1.0079
  289   1 O    8      -2.020000   12.920000   22.080002       6.0000     15.9994
  290   2 H    1      -1.960000   13.560000   22.850000       1.0000      1.0079
  291   2 H    1      -1.090000   12.800001   21.840000       1.0000      1.0079
  292   1 O    8      -2.180000   -3.630000   17.340000       6.0000     15.9994
  293   2 H    1      -2.850000   -4.320000   17.120001       1.0000      1.0079
  294   2 H    1      -1.290000   -4.000000   17.030001       1.0000      1.0079
  295   1 O    8      -0.640000    4.340000   32.320000       6.0000     15.9994
  296   2 H    1       0.040000    4.610000   32.980000       1.0000      1.0079
  297   2 H    1      -0.310000    3.890000   31.470001       1.0000      1.0079
  298   1 O    8       1.080000    9.950001   20.110001       6.0000     15.9994
  299   2 H    1       1.590000   10.610001   20.610001       1.0000      1.0079
  300   2 H    1       1.460000   10.030001   19.190002       1.0000      1.0079
  301   1 O    8      -0.260000    1.370000   23.220001       6.0000     15.9994
  302   2 H    1      -0.080000    2.290000   22.820000       1.0000      1.0079
  303   2 H    1      -0.120000    1.490000   24.160002       1.0000      1.0079
  304   1 O    8       5.060000    7.330000    8.720000       6.0000     15.9994
  305   2 H    1       5.240001    7.560000    9.700001       1.0000      1.0079
  306   2 H    1       5.910000    7.520000    8.290001       1.0000      1.0079
  307   1 O    8      -4.900000    9.560000    9.160001       6.0000     15.9994
  308   2 H    1      -4.510000    8.960000    9.790000       1.0000      1.0079
  309   2 H    1      -5.840001    9.290000    9.030001       1.0000      1.0079
  310   1 O    8      -8.620001   22.940002   28.830002       6.0000     15.9994
  311   2 H    1      -8.940001   22.540001   29.680002       1.0000      1.0079
  312   2 H    1      -8.950001   22.460001   28.060001       1.0000      1.0079
  313   1 O    8      -2.980000   12.470001   29.180002       6.0000     15.9994
  314   2 H    1      -1.940000   12.590000   29.360001       1.0000      1.0079
  315   2 H    1      -2.860000   12.150001   28.230001       1.0000      1.0079
  316   1 O    8       9.380000   -2.760000    8.660001       6.0000     15.9994
  317   2 H    1       9.410001   -3.790000    8.780001       1.0000      1.0079
  318   2 H    1       8.420001   -2.470000    8.620001       1.0000      1.0079
  319   1 O    8      -1.970000    8.530001   10.200001       6.0000     15.9994
  320   2 H    1      -1.770000    8.000000   10.990001       1.0000      1.0079
  321   2 H    1      -2.590000    7.960001    9.660000       1.0000      1.0079
  322   1 O    8      -1.920000    7.130001   12.580000       6.0000     15.9994
  323   2 H    1      -1.850000    7.770000   13.360001       1.0000      1.0079
  324   2 H    1      -2.640000    6.490001   12.820001       1.0000      1.0079
  325   1 O    8       6.930000    8.370000   30.360003       6.0000     15.9994
  326   2 H    1       7.750000    7.920001   30.120001       1.0000      1.0079
  327   2 H    1       6.530001    7.740001   30.980000       1.0000      1.0079
  328   1 O    8      -3.570000   16.590000   17.130001       6.0000     15.9994
  329   2 H    1      -2.830000   16.730001   16.410000       1.0000      1.0079
  330   2 H    1      -3.140000   16.710001   18.010002       1.0000      1.0079
  331   1 O    8      -3.920000    5.480001   32.350002       6.0000     15.9994
  332   2 H    1      -4.520000    6.240000   32.290001       1.0000      1.0079
  333   2 H    1      -3.310000    5.830000   33.120003       1.0000      1.0079
  334   1 O    8      -2.630000    3.130000   33.440002       6.0000     15.9994
  335   2 H    1      -2.070000    3.840000   33.040001       1.0000      1.0079
  336   2 H    1      -2.010000    2.300000   33.300003       1.0000      1.0079
  337   1 O    8       4.260000    5.620000   22.730000       6.0000     15.9994
  338   2 H    1      12.180000   -9.600000   22.120001       1.0000      1.0079
  339   2 H    1     -13.020000    6.520000   22.680000       1.0000      1.0079
  340   1 O    8      12.070000   15.930000   10.080000       6.0000     15.9994
  341   2 H    1      12.370001   16.430000   10.920000       1.0000      1.0079
  342   2 H    1      12.890000   16.040001    9.560000       1.0000      1.0079
  343   1 O    8      12.050000   12.150001   15.950001       6.0000     15.9994
  344   2 H    1      11.990000   12.270001   14.990001       1.0000      1.0079
  345   2 H    1      11.170001   12.490001   16.390001       1.0000      1.0079
  346   1 O    8       9.060000   -0.760000   21.370001       6.0000     15.9994
  347   2 H    1       9.690001   -1.390000   21.720001       1.0000      1.0079
  348   2 H    1       9.420000   -0.590000   20.510002       1.0000      1.0079
  349   1 O    8      10.060000    8.670000   13.260001       6.0000     15.9994
  350   2 H    1      10.060000    7.820001   12.720001       1.0000      1.0079
  351   2 H    1      10.760001    8.520000   14.020000       1.0000      1.0079
  352   1 O    8       2.480000    4.220000   21.220001       6.0000     15.9994
  353   2 H    1       2.770000    3.420000   20.840000       1.0000      1.0079
  354   2 H    1       2.120000    4.750000   20.540001       1.0000      1.0079
  355   1 O    8      -1.070000    3.890000   18.570002       6.0000     15.9994
  356   2 H    1      -0.500000    3.850000   17.780001       1.0000      1.0079
  357   2 H    1      -0.640000    3.190000   19.110001       1.0000      1.0079
  358   1 O    8      11.540001   13.360001    9.490001       6.0000     15.9994
  359   2 H    1      11.360001   12.780001   10.290001       1.0000      1.0079
  360   2 H    1      11.500001   14.330001    9.740001       1.0000      1.0079
  361   1 O    8       1.430000   19.720001   32.790001       6.0000     15.9994
  362   2 H    1       0.740000   19.730000   33.450005       1.0000      1.0079
  363   2 H    1       1.890000   18.830002   32.830002       1.0000      1.0079
  364   1 O    8       6.230001    5.960000   32.050003       6.0000     15.9994
  365   2 H    1       6.760001    5.100000   32.029999       1.0000      1.0079
  366   2 H    1       5.240001    5.740000   32.000000       1.0000      1.0079
  367   1 O    8      -1.820000   11.120001   13.880000       6.0000     15.9994
  368   2 H    1      -2.440000   11.770000   14.320001       1.0000      1.0079
  369   2 H    1      -0.860000   11.190001   14.190001       1.0000      1.0079
  370   1 O    8     -14.090000    1.670000   27.220001       6.0000     15.9994
  371   2 H    1     -14.580001    1.210000   27.970001       1.0000      1.0079
  372   2 H    1     -13.500000    2.400000   27.550001       1.0000      1.0079
  373   1 O    8      -3.840000   14.960001   29.530001       6.0000     15.9994
  374   2 H    1      -4.770000   15.070001   29.510002       1.0000      1.0079
  375   2 H    1      -3.650000   13.950001   29.480001       1.0000      1.0079
  376   1 O    8      -2.510000    1.880000   14.950001       6.0000     15.9994
  377   2 H    1      -2.820000    2.390000   15.730000       1.0000      1.0079
  378   2 H    1      -2.030000    1.100000   15.330001       1.0000      1.0079
  379   1 O    8       0.830000   -3.920000   29.210003       6.0000     15.9994
  380   2 H    1       1.290000   -3.570000   30.000002       1.0000      1.0079
  381   2 H    1       0.230000   -4.540000   29.660000       1.0000      1.0079
  382   1 O    8      -5.420001   -2.460000   12.060001       6.0000     15.9994
  383   2 H    1      -5.150001   -2.010000   11.250000       1.0000      1.0079
  384   2 H    1      -6.220000   -1.910000   12.440001       1.0000      1.0079
  385   1 O    8       0.560000    9.270000    9.260000       6.0000     15.9994
  386   2 H    1       0.980000    8.570001    8.680000       1.0000      1.0079
  387   2 H    1      -0.370000    8.940001    9.270000       1.0000      1.0079
  388   1 O    8       3.330000    9.400001    8.430000       6.0000     15.9994
  389   2 H    1       3.920000   10.170001    8.480000       1.0000      1.0079
  390   2 H    1       4.070000    8.700001    8.310000       1.0000      1.0079
  391   1 O    8       9.080001   13.880000    8.570001       6.0000     15.9994
  392   2 H    1       9.940001   13.470001    8.750001       1.0000      1.0079
  393   2 H    1       9.020000   14.720001    9.150001       1.0000      1.0079
  394   1 O    8      -0.590000   15.570001   25.710001       6.0000     15.9994
  395   2 H    1       8.220000    0.060000   26.010000       1.0000      1.0079
  396   2 H    1      -1.090000   15.810001   26.490002       1.0000      1.0079
  397   1 O    8      -4.820000   11.850000   22.400000       6.0000     15.9994
  398   2 H    1      -4.060000   12.450000   22.360001       1.0000      1.0079
  399   2 H    1      -5.420001   12.150001   21.660002       1.0000      1.0079
  400   1 O    8      -5.480001    9.030001   28.080002       6.0000     15.9994
  401   2 H    1      -5.060000    9.560000   27.340002       1.0000      1.0079
  402   2 H    1      -6.290000    9.540001   28.370001       1.0000      1.0079
  403   1 O    8      13.060001   12.040001    7.960001       6.0000     15.9994
  404   2 H    1      12.790001   11.160001    8.260000       1.0000      1.0079
  405   2 H    1      12.470001   12.680000    8.500000       1.0000      1.0079
  406   1 O    8       0.500000   10.610001   27.930002       6.0000     15.9994
  407   2 H    1       0.280000   10.620001   26.940002       1.0000      1.0079
  408   2 H    1       0.170000    9.670001   28.310001       1.0000      1.0079
  409   1 O    8      15.710001    5.320000    8.840000       6.0000     15.9994
  410   2 H    1      16.210001    5.500000    9.720000       1.0000      1.0079
  411   2 H    1      14.820002    5.860000    8.790001       1.0000      1.0079
  412   1 O    8      -9.620001   -4.940000   18.980001       6.0000     15.9994
  413   2 H    1      -8.890000   -4.620000   19.550001       1.0000      1.0079
  414   2 H    1     -10.140000   -4.020000   18.780001       1.0000      1.0079
  415   1 O    8      -6.830000   17.640001    9.080001       6.0000     15.9994
  416   2 H    1      -7.070000   17.580002    8.100000       1.0000      1.0079
  417   2 H    1      -6.120000   16.980001    9.300001       1.0000      1.0079
  418   1 O    8      14.930000   20.130001   19.240002       6.0000     15.9994
  419   2 H    1      15.570001   19.520000   18.800001       1.0000      1.0079
  420   2 H    1      14.050001   19.730000   19.070000       1.0000      1.0079
  421   1 O    8      10.670000    3.010000    9.550000       6.0000     15.9994
  422   2 H    1      10.090000    2.200000    9.280001       1.0000      1.0079
  423   2 H    1      10.260000    3.820000    9.140000       1.0000      1.0079
  424   1 O    8       2.000000   14.820002   32.830002       6.0000     15.9994
  425   2 H    1       2.240000   14.450001   33.720001       1.0000      1.0079
  426   2 H    1      10.440001   -0.680000   32.360001       1.0000      1.0079
  427   1 O    8       7.410001   21.720001   31.100002       6.0000     15.9994
  428   2 H    1       6.550000   22.130001   31.360001       1.0000      1.0079
  429   2 H    1       7.260000   20.790001   30.960003       1.0000      1.0079
  430   1 O    8     -15.220001   12.490001   31.700001       6.0000     15.9994
  431   2 H    1     -15.890001   12.530001   30.930002       1.0000      1.0079
  432   2 H    1     -14.410001   12.020000   31.240002       1.0000      1.0079
  433   1 O    8       1.990000   -4.200000   24.050003       6.0000     15.9994
  434   2 H    1       1.620000   -3.460000   24.650002       1.0000      1.0079
  435   2 H    1       2.650000   -3.700000   23.410000       1.0000      1.0079
  436   1 O    8     -12.490001    8.990001   17.200001       6.0000     15.9994
  437   2 H    1     -13.480000    9.270000   17.250000       1.0000      1.0079
  438   2 H    1      -4.110000   -6.280000   16.520000       1.0000      1.0079
  439   1 O    8      -0.320000   -0.340000   15.310000       6.0000     15.9994
  440   2 H    1      -0.840000   -0.980000   14.720001       1.0000      1.0079
  441   2 H    1       0.180000    0.120000   14.550000       1.0000      1.0079
  442   1 O    8      -3.840000   -2.990000   13.960000       6.0000     15.9994
  443   2 H    1      -4.450000   -2.780000   13.230000       1.0000      1.0079
  444   2 H    1      -4.180000   -2.650000   14.810000       1.0000      1.0079
  445   1 O    8     -11.170001    0.080000   12.870001       6.0000     15.9994
  446   2 H    1     -11.220001    0.340000   13.830000       1.0000      1.0079
  447   2 H    1     -12.050000   -0.460000   12.860001       1.0000      1.0079
  448   1 O    8       1.100000    6.840000    8.190001       6.0000     15.9994
  449   2 H    1       0.320000    6.270000    8.200001       1.0000      1.0079
  450   2 H    1      18.720001    6.380000    8.830000       1.0000      1.0079
  451   1 O    8       0.250000   14.940001   28.730001       6.0000     15.9994
  452   2 H    1      -0.160000   15.830001   28.940001       1.0000      1.0079
  453   2 H    1       1.200000   15.130001   28.430002       1.0000      1.0079
  454   1 O    8       6.960001    3.170000   32.200005       6.0000     15.9994
  455   2 H    1       7.580000    2.880000   32.870003       1.0000      1.0079
  456   2 H    1       6.200000    2.550000   32.240002       1.0000      1.0079
  457   1 O    8      -4.740000    5.310000   15.690001       6.0000     15.9994
  458   2 H    1      -4.230000    4.880000   16.460001       1.0000      1.0079
  459   2 H    1      -4.640000    6.270000   15.700001       1.0000      1.0079
  460   1 O    8      12.650002   10.340000   30.520000       6.0000     15.9994
  461   2 H    1      13.060001   11.180000   30.270002       1.0000      1.0079
  462   2 H    1      -4.670000   10.040001   29.740002       1.0000      1.0079
  463   1 O    8     -11.040001  -10.120001   22.410002       6.0000     15.9994
  464   2 H    1     -11.310000   -9.200000   22.210003       1.0000      1.0079
  465   2 H    1     -11.480000  -10.410000   23.260002       1.0000      1.0079
  466   1 O    8       8.520000    4.890000    8.110001       6.0000     15.9994
  467   2 H    1       8.290001    5.730000    8.650001       1.0000      1.0079
  468   2 H    1       7.880001    4.250000    8.550000       1.0000      1.0079
  469   1 O    8     -14.640001    5.530000   28.420002       6.0000     15.9994
  470   2 H    1     -14.650001    6.450000   28.900002       1.0000      1.0079
  471   2 H    1     -15.060000    5.630000   27.580002       1.0000      1.0079
  472   1 O    8       2.760000    7.700000   29.800003       6.0000     15.9994
  473   2 H    1       3.660000    7.760000   29.440002       1.0000      1.0079
  474   2 H    1       2.840000    7.770000   30.760002       1.0000      1.0079
  475   1 O    8       9.590000    2.290000   14.110001       6.0000     15.9994
  476   2 H    1      10.440001    1.850000   14.090000       1.0000      1.0079
  477   2 H    1       8.910000    1.570000   14.090000       1.0000      1.0079
  478   1 O    8     -13.350000   18.010002   21.410000       6.0000     15.9994
  479   2 H    1     -12.440001   18.280001   21.590002       1.0000      1.0079
  480   2 H    1     -13.770000   17.550001   22.120001       1.0000      1.0079
  481   1 O    8       8.400001   17.670000   29.940002       6.0000     15.9994
  482   2 H    1       8.180000   18.340000   29.210003       1.0000      1.0079
  483   2 H    1       7.870001   16.860001   29.730000       1.0000      1.0079
  484   1 O    8       2.580000    6.960001   25.560001       6.0000     15.9994
  485   2 H    1       2.100000    7.830000   25.459999       1.0000      1.0079
  486   2 H    1       1.810000    6.330000   25.440002       1.0000      1.0079
  487   1 O    8      13.530001   21.560001   26.370001       6.0000     15.9994
  488   2 H    1      13.900002   20.810001   26.880001       1.0000      1.0079
  489   2 H    1      12.560000   21.510000   26.200001       1.0000      1.0079
  490   1 O    8      11.250000   11.910001   11.590000       6.0000     15.9994
  491   2 H    1      11.990000   11.300000   11.400002       1.0000      1.0079
  492   2 H    1      10.410000   11.420001   11.820001       1.0000      1.0079
  493   1 O    8      -1.600000    0.960000   32.560001       6.0000     15.9994
  494   2 H    1     -10.330000   15.710001   31.670000       1.0000      1.0079
  495   2 H    1      -0.550000    0.840000   32.520000       1.0000      1.0079
  496   1 O    8      -1.100000   -0.550000   26.790001       6.0000     15.9994
  497   2 H    1      -9.910001   14.960001   26.660002       1.0000      1.0079
  498   2 H    1     -10.290001   13.530001   26.460001       1.0000      1.0079
  499   1 O    8       5.270000    8.800000   28.549999       6.0000     15.9994
  500   2 H    1       5.320000    8.110001   27.830002       1.0000      1.0079
  501   2 H    1       5.920000    8.730000   29.330002       1.0000      1.0079
  502   1 O    8       7.070000    5.820000   11.850000       6.0000     15.9994
  503   2 H    1       6.130000    5.690000   11.500001       1.0000      1.0079
  504   2 H    1       7.600000    5.090000   11.630001       1.0000      1.0079
  505   1 O    8      11.130000   -4.950000   11.190001       6.0000     15.9994
[...]
    899      3      Pt         -0.00547066     0.00675879     0.00156665
    900      3      Pt         -0.01152328     0.01970808     0.00057700
    901      3      Pt         -0.00075335    -0.01304228    -0.00704911
    902      3      Pt          0.00182063     0.01111588    -0.00486047
    903      3      Pt         -0.00855772    -0.01358511    -0.00273193
    904      3      Pt          0.00522899     0.00691038     0.01687776
    905      3      Pt          0.00027228    -0.01449909     0.00249280
    906      3      Pt          0.00600287     0.00702968    -0.00336331
 SUM OF ATOMIC FORCES           0.03486239    -0.04199317     0.03440375     0.06451691

 STRESS| Analytical stress tensor [GPa]
 STRESS|                        x                   y                   z
 STRESS|      x       -2.37655584800E+00  -1.41772382908E-01  -9.00049996799E-03
 STRESS|      y       -1.41772382908E-01  -2.36250533126E+00   1.69282894306E-01
 STRESS|      z       -9.00049996799E-03   1.69282894306E-01  -3.92750941192E-01
 STRESS| 1/3 Trace                                            -1.71060404015E+00
 STRESS| Determinant                                          -2.12852788406E+00

 STRESS| Eigenvectors and eigenvalues of the analytical stress tensor [GPa]
 STRESS|                        1                   2                   3
 STRESS| Eigenvalues  -2.51734924588E+00  -2.23637657810E+00  -3.78086296464E-01
 STRESS|      x           0.706856411118     -0.707278092953     -0.010569450778
 STRESS|      y           0.705353171231      0.703651319328      0.085742198722
 STRESS|      z          -0.053206370813     -0.068062618494      0.996261292066

 -------------------------------------------------------------------------------
 -                                                                             -
 -                                DBCSR STATISTICS                             -
 -                                                                             -
 -------------------------------------------------------------------------------
 COUNTER                                    TOTAL       BLAS       SMM       ACC
 flops     5 x     5 x   288          91417939200       0.0%    100.0%      0.0%
 flops     5 x     5 x   292          92687632800       0.0%    100.0%      0.0%
 flops    13 x     5 x   288         103151543040       0.0%    100.0%      0.0%
 flops     5 x    13 x   288         103195572480       0.0%    100.0%      0.0%
 flops    20 x    13 x   288         103909478400       0.0%    100.0%      0.0%
 flops    13 x    20 x   288         104035276800       0.0%    100.0%      0.0%
 flops    13 x     5 x   292         104584203360       0.0%    100.0%      0.0%
 flops     5 x    13 x   292         104628844320       0.0%    100.0%      0.0%
 flops    20 x    13 x   292         105352665600       0.0%    100.0%      0.0%
 flops    13 x    20 x   292         105480211200       0.0%    100.0%      0.0%
 flops    13 x    13 x   288         109905659136       0.0%    100.0%      0.0%
 flops    13 x    13 x   292         111432126624       0.0%    100.0%      0.0%
 flops    20 x     5 x   288         112947609600       0.0%    100.0%      0.0%
 flops     5 x    20 x   288         113383065600       0.0%    100.0%      0.0%
 flops    20 x     5 x   292         114516326400       0.0%    100.0%      0.0%
 flops     5 x    20 x   292         114957830400       0.0%    100.0%      0.0%
 flops    20 x    20 x   288         453570969600       0.0%    100.0%      0.0%
 flops    20 x    20 x   292         459870566400       0.0%    100.0%      0.0%
 flops     5 x     5 x   320         609452928000       0.0%    100.0%      0.0%
 flops    13 x     5 x   320         687676953600       0.0%    100.0%      0.0%
 flops     5 x    13 x   320         687970483200       0.0%    100.0%      0.0%
 flops    20 x    13 x   320         692729856000       0.0%    100.0%      0.0%
 flops    13 x    20 x   320         693568512000       0.0%    100.0%      0.0%
 flops    13 x    13 x   320         732704394240       0.0%    100.0%      0.0%
 flops    20 x     5 x   320         752984064000       0.0%    100.0%      0.0%
 flops     5 x    20 x   320         755887104000       0.0%    100.0%      0.0%
 flops    20 x    20 x   320        3023806464000       0.0%    100.0%      0.0%
 flops inhomo. stacks                           0       0.0%      0.0%      0.0%
 flops total                        11.245808E+12       0.0%    100.0%      0.0%
 flops max/rank                    181.092660E+09       0.0%    100.0%      0.0%
 matmuls inhomo. stacks                         0       0.0%      0.0%      0.0%
 matmuls total                          162203328       0.0%    100.0%      0.0%
 number of processed stacks                430080       0.0%    100.0%      0.0%
 average stack size                                     0.0     377.1       0.0
 marketing flops                    31.974131E+12
 -------------------------------------------------------------------------------
 # multiplications                             84
 max memory usage/rank               1.873048E+09
 # max total images/rank                        1
 # max 3D layers                                1
 # MPI messages exchanged                   75264
 MPI messages size (bytes):
  total size                       226.027078E+09
  min size                           2.762496E+06
  max size                           3.077120E+06
  average size                       3.003123E+06
 MPI breakdown and total messages size (bytes):
             size <=      128                   0                        0
       128 < size <=     8192                   0                        0
      8192 < size <=    32768                   0                        0
     32768 < size <=   131072                   0                        0
    131072 < size <=  4194304               75264             226027200000
   4194304 < size <= 16777216                   0                        0
  16777216 < size                               0                        0
 -------------------------------------------------------------------------------
 -                                                                             -
 -                      DBCSR MESSAGE PASSING PERFORMANCE                      -
 -                                                                             -
 -------------------------------------------------------------------------------
 ROUTINE             CALLS      AVE VOLUME [Bytes]
 MP_Bcast               28                     12.
 MP_Allreduce          662                     10.
 MP_Alltoall          2352                1960211.
 MP_ISend             2688                1329597.
 MP_IRecv             2688                1310413.
 -------------------------------------------------------------------------------

 -------------------------------------------------------------------------------
 -                                                                             -
 -                                DBM STATISTICS                               -
 -                                                                             -
 -------------------------------------------------------------------------------
    M  x    N  x    K                                          COUNT     PERCENT
 -------------------------------------------------------------------------------

 -------------------------------------------------------------------------------
 -                                                                             -
 -                                GRID STATISTICS                              -
 -                                                                             -
 -------------------------------------------------------------------------------
 LP    KERNEL             BACKEND                              COUNT     PERCENT
 3     collocate general  REF                               58151184      18.82%
 3     integrate general  REF                               57516892      18.61%
 2     collocate general  REF                               55173552      17.85%
 2     integrate general  REF                               54516724      17.64%
 4     collocate general  REF                               41078184      13.29%
 4     integrate general  REF                               40589158      13.13%
 6     integrate general  REF                                 692276       0.22%
 5     integrate general  REF                                 656828       0.21%
 7     integrate general  REF                                 489026       0.16%
 0     collocate general  REF                                 115968       0.04%
 0     integrate general  REF                                  57984       0.02%
 -------------------------------------------------------------------------------

 MEMORY| Estimated peak process memory [MiB]                                2107

 -------------------------------------------------------------------------------
 ----                             MULTIGRID INFO                            ----
 -------------------------------------------------------------------------------
 count for grid        1:         731459          cutoff [a.u.]          200.00
 count for grid        2:         806997          cutoff [a.u.]           66.67
 count for grid        3:         741573          cutoff [a.u.]           22.22
 count for grid        4:         831234          cutoff [a.u.]            7.41
 total gridlevel count  :        3111263

 -------------------------------------------------------------------------------
 -                                                                             -
 -                         MESSAGE PASSING PERFORMANCE                         -
 -                                                                             -
 -------------------------------------------------------------------------------

 ROUTINE             CALLS      AVE VOLUME [Bytes]
 MP_Group                4
 MP_Bcast              268                2202856.
 MP_Allreduce         1398                   1794.
 MP_Sync                87
 MP_Alltoall          1864               12839689.
 MP_SendRecv           252                  13848.
 MP_ISendRecv        21168                 113680.
 MP_Wait             47348
 MP_ISend            24480                 339952.
 MP_IRecv            24480                 339952.
 MP_Recv               385                2460160.
 MP_Write_All            3                1540656.
 -------------------------------------------------------------------------------


 -------------------------------------------------------------------------------
 -                                                                             -
 -                           R E F E R E N C E S                               -
 -                                                                             -
 -------------------------------------------------------------------------------
 
 CP2K version 2022.1, the CP2K developers group (2022).
 CP2K is freely available from https://www.cp2k.org/ .

 Kuehne,Thomas D.; Iannuzzi,Marcella; Del Ben,Mauro;
 Rybkin,Vladimir V.; Seewald,Patrick; Stein,Frederick; Laino,Teodoro;
 Khaliullin,Rustam Z.; Schuett,Ole; Schiffmann,Florian; Golze,Dorothea;
 Wilhelm,Jan; Chulkov,Sergey; Bani-Hashemian,Mohammad Hossein;
 Weber,Valery; Borstnik,Urban; Taillefumier,Mathieu;
 Jakobovits,Alice Shoshana; Lazzaro,Alfio; Pabst,Hans; Mueller,Tiziano;
 Schade,Robert; Guidon,Manuel; Andermatt,Samuel; Holmberg,Nico;
 Schenter,Gregory K.; Hehn,Anna; Bussy,Augustin; Belleflamme,Fabian;
 Tabacchi,Gloria; Gloess,Andreas; Lass,Michael; Bethune,Iain;
 Mundy,Christopher J.; Plessl,Christian; Watkins,Matt;
 VandeVondele,Joost; Krack,Matthias; Hutter,Juerg. 
 The Journal of Chemical Physics, 152 (19), (2020). 
 CP2K: An electronic structure and molecular dynamics software package -
 Quickstep: Efficient and accurate electronic structure calculations.
 https://doi.org/10.1063/5.0007045

 Goerigk, Lars; Hansen, Andreas; Bauer, Christoph; Ehrlich, Stephan;
 Najibi, Asim; Grimme, Stefan. , 19 (48), (2017). 
 A look at the density functional theory zoo with the advanced GMTKN55 database
 for general main group thermochemistry, kinetics and noncovalent interactions.
 https://doi.org/10.1039/C7CP04913G

 Schuett, Ole; Messmer, Peter; Hutter, Juerg; VandeVondele, Joost. 
 Electronic Structure Calculations on Graphics Processing Units, John
 Wiley & Sons, Ltd, 173-190 (2016). 
 GPU-Accelerated Sparse Matrix-Matrix Multiplication for
 Linear Scaling Density Functional Theory.
 https://doi.org/10.1002/9781118670712.ch8

 Heinecke, A; Henry, G; Hutchinson, M; Pabst, H. 
 Proceedings of Intl. Supercomputing Conference, 981-991 (2016). 
 LIBXSMM: Accelerating Small Matrix Multiplications
 by Runtime Code Generation.
 https://doi.org/10.1109/SC.2016.83

 Borstnik, U; VandeVondele, J; Weber, V; Hutter, J. 
 PARALLEL COMPUTING, 40 (5-6), 47-58 (2014). 
 Sparse matrix multiplication: The distributed block-compressed sparse
 row library.
 https://doi.org/10.1016/j.parco.2014.03.012

 Hutter, J; Iannuzzi, M; Schiffmann, F; VandeVondele, J. 
 WIREs Comput Mol Sci., 4 (1), 15-25 (2014). 
 CP2K: atomistic simulations of condensed matter systems.
 https://doi.org/10.1002/wcms.1159

 Marek, A; Blum, V; Johanni, R; Havu, V; Lang, B; Auckenthaler, T;
 Heinecke, A; Bungartz, H; Lederer, H. 
 Journal of Physics: Condensed Matter, 26 (21), (2014). 
 The ELPA library: scalable parallel eigenvalue solutions for
 electronic structure
 theory and computational science.
 https://doi.org/10.1088/0953-8984/26/21/213201

 Grimme, S; Ehrlich, S; Goerigk, L. 
 JOURNAL OF COMPUTATIONAL CHEMISTRY, 32, 1456 (2011). 
 Effect of the damping function in dispersion corrected density functional theory.
 https://doi.org/10.1002/jcc.21759

 Grimme, S; Antony, J; Ehrlich, S; Krieg, H. 
 JOURNAL OF CHEMICAL PHYSICS, 132 (15), 154104 (2010). 
 A consistent and accurate ab initio parametrization of density
 functional dispersion correction (DFT-D) for the 94 elements H-Pu.
 https://doi.org/10.1063/1.3382344

 VandeVondele, J; Hutter, J. 
 JOURNAL OF CHEMICAL PHYSICS, 127 (11), 114105 (2007). 
 Gaussian basis sets for accurate calculations on molecular systems in
 gas and condensed phases.
 https://doi.org/10.1063/1.2770708

 Krack, M. 
 THEORETICAL CHEMISTRY ACCOUNTS, 114 (1-3), 145-152 (2005). 
 Pseudopotentials for H to Kr optimized for gradient-corrected
 exchange-correlation functionals.
 https://doi.org/10.1007/s00214-005-0655-y

 VandeVondele, J; Krack, M; Mohamed, F; Parrinello, M; Chassaing, T;
 Hutter, J. COMPUTER PHYSICS COMMUNICATIONS, 167 (2), 103-128 (2005). 
 QUICKSTEP: Fast and accurate density functional calculations using a
 mixed Gaussian and plane waves approach.
 https://doi.org/10.1016/j.cpc.2004.12.014

 Frigo, M; Johnson, SG. 
 PROCEEDINGS OF THE IEEE, 93 (2), 216-231 (2005). 
 The design and implementation of FFTW3.
 https://doi.org/10.1109/JPROC.2004.840301

 Hartwigsen, C; Goedecker, S; Hutter, J. 
 PHYSICAL REVIEW B, 58 (7), 3641-3662 (1998). 
 Relativistic separable dual-space Gaussian pseudopotentials from H to Rn.
 https://doi.org/10.1103/PhysRevB.58.3641

 Lippert, G; Hutter, J; Parrinello, M. 
 MOLECULAR PHYSICS, 92 (3), 477-487 (1997). 
 A hybrid Gaussian and plane wave density functional scheme.
 https://doi.org/10.1080/002689797170220

 Perdew, JP; Burke, K; Ernzerhof, M. 
 PHYSICAL REVIEW LETTERS, 77 (18), 3865-3868 (1996). 
 Generalized gradient approximation made simple.
 https://doi.org/10.1103/PhysRevLett.77.3865

 Goedecker, S; Teter, M; Hutter, J. 
 PHYSICAL REVIEW B, 54 (3), 1703-1710 (1996). 
 Separable dual-space Gaussian pseudopotentials.
 https://doi.org/10.1103/PhysRevB.54.1703


 -------------------------------------------------------------------------------
 -                                                                             -
 -                                T I M I N G                                  -
 -                                                                             -
 -------------------------------------------------------------------------------
 SUBROUTINE                       CALLS  ASD         SELF TIME        TOTAL TIME
                                MAXIMUM       AVERAGE  MAXIMUM  AVERAGE  MAXIMUM
 CP2K                                 1  1.0    0.027    0.041  993.080  993.082
 qs_forces                            1  2.0    0.002    0.003  992.686  992.689
 qs_energies                          1  3.0    0.000    0.001  980.144  980.155
 scf_env_do_scf                       1  4.0    0.000    0.001  971.875  972.120
 scf_env_do_scf_inner_loop           83  5.0    0.004    0.014  971.875  972.120
 qs_scf_new_mos                      83  6.0    0.005    0.014  395.939  396.622
 eigensolver                         83  7.0    0.007    0.011  367.530  367.912
 rebuild_ks_matrix                   84  7.0    0.000    0.000  306.835  306.889
 qs_ks_build_kohn_sham_matrix        84  8.0    0.013    0.014  306.835  306.888
 qs_ks_update_qs_env                 83  6.0    0.001    0.001  298.755  298.808
 qs_rho_update_rho_low               84  6.0    0.001    0.001  262.147  262.184
 calculate_rho_elec                  84  7.0    0.196    0.232  262.147  262.183
 sum_up_and_integrate                84  9.0    0.353    0.448  257.516  257.588
 integrate_v_rspace                  84 10.0    0.003    0.004  257.163  257.239
 grid_collocate_task_list            84  8.0  230.465  237.075  230.465  237.075
 grid_integrate_task_list            84 11.0  224.369  230.443  224.369  230.443
 cp_fm_diag_elpa                     83  8.0    0.001    0.001  215.727  216.252
 cp_fm_diag_elpa_base                83  9.0  212.430  213.197  215.379  215.463
 cp_fm_triangular_multiply          249  8.0  148.725  150.635  148.725  150.635
 pw_transfer                       1680 10.9    0.118    0.152   46.445   47.430
 fft_wrap_pw1pw2                   1512 12.0    0.014    0.017   45.918   46.905
 rs_pw_transfer                     676 10.5    0.007    0.009   40.403   45.467
 fft_wrap_pw1pw2_200               1008 13.3    4.134    4.455   44.187   45.115
 qs_vxc_create                       84  9.0    0.003    0.003   43.505   43.763
 xc_vxc_pw_create                    84 10.0    0.770    0.816   43.503   43.761
 fft3d_ps                          1512 14.0   16.704   18.749   33.902   35.064
 density_rs2pw                       84  8.0    0.006    0.006   28.902   34.215
 xc_pw_derive                       504 12.0    0.009    0.010   27.619   29.014
 xc_rho_set_and_dset_create          84 11.0    0.408    0.439   23.320   24.909
 potential_pw2rs                     84 11.0    0.031    0.038   24.245   24.314
 mp_waitany                       24480 12.4   17.246   22.742   17.246   22.742
 calculate_dm_sparse                 83  7.0    0.026    0.032   20.688   21.403
 cp_dbcsr_plus_fm_fm_t_native        84  8.0    0.004    0.008   20.613   21.350
 rs_pw_transfer_RS2PW_200            86 10.0    5.429    5.816   15.941   20.945
 -------------------------------------------------------------------------------

 The number of warnings for this run is : 1
 
 -------------------------------------------------------------------------------
  **** **** ******  **  PROGRAM ENDED AT                 2023-11-26 22:17:31.876
 ***** ** ***  *** **   PROGRAM RAN ON                                     cu054
 **    ****   ******    PROGRAM RAN BY                                     jxzhu
 ***** **    ** ** **   PROGRAM PROCESS ID                                 28352
  **** **  *******  **  PROGRAM STOPPED IN /public/home/jxzhu/tmp_calc/af2075565
                                           805657d94fa4669dad6f4b174b0a4fb/calc/
                                           000300.000/pbc
