 DBCSR| CPU Multiplication driver                                           XSMM
 DBCSR| Multrec recursion limit                                              512
 DBCSR| Multiplication stack size                                           1000
 DBCSR| Maximum elements for images                                    UNLIMITED
 DBCSR| Multiplicative factor virtual images                                   1
 DBCSR| Use multiplication densification                                       T
 DBCSR| Multiplication size stacks                                             3
 DBCSR| Use memory pool for CPU allocation                                     F
 DBCSR| Number of 3D layers                                               SINGLE
 DBCSR| Use MPI memory allocation                                              F
 DBCSR| Use RMA algorithm                                                      F
 DBCSR| Use Communication thread                                               T
 DBCSR| Communication thread load                                             87
 DBCSR| MPI: My node id                                                        0
 DBCSR| MPI: Number of nodes                                                 128
 DBCSR| OMP: Current number of threads                                         1
 DBCSR| OMP: Max number of threads                                             1
 DBCSR| Split modifier for TAS multiplication algorithm                  1.0E+00


  **** **** ******  **  PROGRAM STARTED AT               2023-12-03 08:41:15.923
 ***** ** ***  *** **   PROGRAM STARTED ON                                 cu001
 **    ****   ******    PROGRAM STARTED BY                                 jxzhu
 ***** **    ** ** **   PROGRAM PROCESS ID                                 14661
  **** **  *******  **  PROGRAM STARTED IN /public/home/jxzhu/tmp_calc/03c118534
                                           f7681bef3cd14182c58e2daf68a533d/calc/
                                           003100.000/search_hi.000000

 CP2K| version string:                                       CP2K version 2022.1
 CP2K| source code revision number:                                  git:2caeb6f
 CP2K| cp2kflags: omp libint fftw3 libxc elpa parallel mpi3 scalapack cosma xsmm
 CP2K|             plumed2 spglib mkl sirius libvori libbqb
 CP2K| is freely available from                            https://www.cp2k.org/
 CP2K| Program compiled at                           Mon Jul 3 17:37:06 CST 2023
 CP2K| Program compiled on                                                 mu003
 CP2K| Program compiled for                                                local
 CP2K| Data directory path                             /public/home/jxzhu/basis/
 CP2K| Input file name                                                 input.inp
 
 GLOBAL| Force Environment number                                              1
 GLOBAL| Basis set file name                                        BASIS_MOLOPT
 GLOBAL| Potential file name                                      GTH_POTENTIALS
 GLOBAL| MM Potential file name                                     MM_POTENTIAL
 GLOBAL| Coordinate file name                                          coord.xyz
 GLOBAL| Method name                                                        CP2K
 GLOBAL| Project name                                                       cp2k
 GLOBAL| Run type                                                   ENERGY_FORCE
 GLOBAL| FFT library                                                       FFTW3
 GLOBAL| Diagonalization library                                            ELPA
 GLOBAL| Minimum number of eigenvectors for ELPA usage                        16
 GLOBAL| Orthonormality check for eigenvectors                          DISABLED
 GLOBAL| Matrix multiplication library                                     COSMA
 GLOBAL| All-to-all communication in single precision                          F
 GLOBAL| FFTs using library dependent lengths                                  T
 GLOBAL| Grid backend                                                       AUTO
 GLOBAL| Global print level                                               MEDIUM
 GLOBAL| MPI I/O enabled                                                       T
 GLOBAL| Total number of message passing processes                           128
 GLOBAL| Number of threads for this process                                    1
 GLOBAL| This output is from process                                           0
 GLOBAL| Stack size for threads created by OpenMP (OMP_STACKSIZE)        default
 GLOBAL| CPU model name                 Intel(R) Xeon(R) Gold 6338 CPU @ 2.00GHz
 GLOBAL| CPUID                                                              1003

 MEMORY| system memory details [Kb]
 MEMORY|                        rank 0           min           max       average
 MEMORY| MemTotal            263619172     263619172     263619172     263619172
 MEMORY| MemFree             218205140     215574688     218207620     216890107
 MEMORY| Buffers                    20            20            36            28
 MEMORY| Cached                1780064        725020       1780064       1252545
 MEMORY| Slab                  1453072       1431608       1453072       1442340
 MEMORY| SReclaimable           245256        230560        245256        237908
 MEMORY| MemLikelyFree       220230480     216530312     220232960     218380589


 *** Fundamental physical constants (SI units) ***

 *** Literature: B. J. Mohr and B. N. Taylor,
 ***             CODATA recommended values of the fundamental physical
 ***             constants: 2006, Web Version 5.1
 ***             http://physics.nist.gov/constants

 Speed of light in vacuum [m/s]                             2.99792458000000E+08
 Magnetic constant or permeability of vacuum [N/A**2]       1.25663706143592E-06
 Electric constant or permittivity of vacuum [F/m]          8.85418781762039E-12
 Planck constant (h) [J*s]                                  6.62606896000000E-34
 Planck constant (h-bar) [J*s]                              1.05457162825177E-34
 Elementary charge [C]                                      1.60217648700000E-19
 Electron mass [kg]                                         9.10938215000000E-31
 Electron g factor [ ]                                     -2.00231930436220E+00
 Proton mass [kg]                                           1.67262163700000E-27
 Fine-structure constant                                    7.29735253760000E-03
 Rydberg constant [1/m]                                     1.09737315685270E+07
 Avogadro constant [1/mol]                                  6.02214179000000E+23
 Boltzmann constant [J/K]                                   1.38065040000000E-23
 Atomic mass unit [kg]                                      1.66053878200000E-27
 Bohr radius [m]                                            5.29177208590000E-11

 *** Conversion factors ***

 [u] -> [a.u.]                                              1.82288848426455E+03
 [Angstrom] -> [Bohr] = [a.u.]                              1.88972613288564E+00
 [a.u.] = [Bohr] -> [Angstrom]                              5.29177208590000E-01
 [a.u.] -> [s]                                              2.41888432650478E-17
 [a.u.] -> [fs]                                             2.41888432650478E-02
 [a.u.] -> [J]                                              4.35974393937059E-18
 [a.u.] -> [N]                                              8.23872205491840E-08
 [a.u.] -> [K]                                              3.15774647902944E+05
 [a.u.] -> [kJ/mol]                                         2.62549961709828E+03
 [a.u.] -> [kcal/mol]                                       6.27509468713739E+02
 [a.u.] -> [Pa]                                             2.94210107994716E+13
 [a.u.] -> [bar]                                            2.94210107994716E+08
 [a.u.] -> [atm]                                            2.90362800883016E+08
 [a.u.] -> [eV]                                             2.72113838565563E+01
 [a.u.] -> [Hz]                                             6.57968392072181E+15
 [a.u.] -> [1/cm] (wave numbers)                            2.19474631370540E+05
 [a.u./Bohr**2] -> [1/cm]                                   5.14048714338585E+03
 

 CELL_TOP| Volume [angstrom^3]:                                     17614.982639
 CELL_TOP| Vector a [angstrom    16.869     0.000     0.000   |a| =    16.869000
 CELL_TOP| Vector b [angstrom    -8.434    14.609     0.000   |b| =    16.869015
 CELL_TOP| Vector c [angstrom     0.000     0.000    71.478   |c| =    71.478000
 CELL_TOP| Angle (b,c), alpha [degree]:                                90.000000
 CELL_TOP| Angle (a,c), beta  [degree]:                                90.000000
 CELL_TOP| Angle (a,b), gamma [degree]:                               119.999970
 CELL_TOP| Numerically orthorhombic:                                          NO
 
 GENERATE|  Preliminary Number of Bonds generated:                             0
 GENERATE|  Achieved consistency in connectivity generation.

 CELL| Volume [angstrom^3]:                                         17614.982639
 CELL| Vector a [angstrom]:      16.869     0.000     0.000   |a| =    16.869000
 CELL| Vector b [angstrom]:      -8.434    14.609     0.000   |b| =    16.869015
 CELL| Vector c [angstrom]:       0.000     0.000    71.478   |c| =    71.478000
 CELL| Angle (b,c), alpha [degree]:                                    90.000000
 CELL| Angle (a,c), beta  [degree]:                                    90.000000
 CELL| Angle (a,b), gamma [degree]:                                   119.999970
 CELL| Numerically orthorhombic:                                              NO

 CELL_REF| Volume [angstrom^3]:                                     17614.982639
 CELL_REF| Vector a [angstrom    16.869     0.000     0.000   |a| =    16.869000
 CELL_REF| Vector b [angstrom    -8.434    14.609     0.000   |b| =    16.869015
 CELL_REF| Vector c [angstrom     0.000     0.000    71.478   |c| =    71.478000
 CELL_REF| Angle (b,c), alpha [degree]:                                90.000000
 CELL_REF| Angle (a,c), beta  [degree]:                                90.000000
 CELL_REF| Angle (a,b), gamma [degree]:                               119.999970
 CELL_REF| Numerically orthorhombic:                                          NO

 *******************************************************************************
 *******************************************************************************
 **                                                                           **
 **     #####                         ##              ##                      **
 **    ##   ##            ##          ##              ##                      **
 **   ##     ##                       ##            ######                    **
 **   ##     ##  ##   ##  ##   #####  ##  ##   ####   ##    #####    #####    **
 **   ##     ##  ##   ##  ##  ##      ## ##   ##      ##   ##   ##  ##   ##   **
 **   ##  ## ##  ##   ##  ##  ##      ####     ###    ##   ######   ######    **
 **    ##  ###   ##   ##  ##  ##      ## ##      ##   ##   ##       ##        **
 **     #######   #####   ##   #####  ##  ##  ####    ##    #####   ##        **
 **           ##                                                    ##        **
 **                                                                           **
 **                                                ... make the atoms dance   **
 **                                                                           **
 **            Copyright (C) by CP2K developers group (2000-2022)             **
 **                      J. Chem. Phys. 152, 194103 (2020)                    **
 **                                                                           **
 *******************************************************************************

 DFT| Spin restricted Kohn-Sham (RKS) calculation                            RKS
 DFT| Multiplicity                                                             1
 DFT| Number of spin states                                                    1
 DFT| Charge                                                                   0
 DFT| Self-interaction correction (SIC)                                       NO
 DFT| Cutoffs: density                                              1.000000E-10
 DFT|          gradient                                             1.000000E-10
 DFT|          tau                                                  1.000000E-10
 DFT|          cutoff_smoothing_range                               0.000000E+00
 DFT| XC density smoothing                                                  NONE
 DFT| XC derivatives                                                          PW

 FUNCTIONAL| PBE:
 FUNCTIONAL| J.P.Perdew, K.Burke, M.Ernzerhof, Phys. Rev. Letter, vol. 77, n 18,
 FUNCTIONAL|  pp. 3865-3868, (1996){spin unpolarized}                           

 vdW POTENTIAL|                                                   Pair Potential
 vdW POTENTIAL|          DFT-D3 (Version 3.1)
 vdW POTENTIAL|          Potential Form: S. Grimme et al, JCP 132: 154104 (2010)
 vdW POTENTIAL|          Zero Damping
 vdW POTENTIAL|          Cutoff Radius [Bohr]:                             20.00
 vdW POTENTIAL|          s6 Scaling Factor:                               1.0000
 vdW POTENTIAL|          sr6 Scaling Factor:                              1.2170
 vdW POTENTIAL|          s8 Scaling Factor:                               0.7220
 vdW POTENTIAL|          Cutoff for CN calculation:                   0.1000E-05

 QS| Method:                                                                 GPW
 QS| Density plane wave grid type                        NON-SPHERICAL FULLSPACE
 QS| Number of grid levels:                                                    4
 QS| Density cutoff [a.u.]:                                                200.0
 QS| Multi grid cutoff [a.u.]: 1) grid level                               200.0
 QS|                           2) grid level                                66.7
 QS|                           3) grid level                                22.2
 QS|                           4) grid level                                 7.4
 QS| Grid level progression factor:                                          3.0
 QS| Relative density cutoff [a.u.]:                                        20.0
 QS| Interaction thresholds: eps_pgf_orb:                                3.2E-07
 QS|                         eps_filter_matrix:                          0.0E+00
 QS|                         eps_core_charge:                            1.0E-15
 QS|                         eps_rho_gspace:                             1.0E-13
 QS|                         eps_rho_rspace:                             1.0E-13
 QS|                         eps_gvg_rspace:                             3.2E-07
 QS|                         eps_ppl:                                    1.0E-02
 QS|                         eps_ppnl:                                   3.2E-09


 ATOMIC KIND INFORMATION

  1. Atomic kind: O                                     Number of atoms:      98

     Orbital Basis Set                                        DZVP-MOLOPT-SR-GTH

       Number of orbital shell sets:                                           1
       Number of orbital shells:                                               5
       Number of primitive Cartesian functions:                                5
       Number of Cartesian basis functions:                                   14
       Number of spherical basis functions:                                   13
       Norm type:                                                              2

       Normalised Cartesian orbitals:

                        Set   Shell   Orbital            Exponent    Coefficient

                          1       1    2s               10.389228       0.396646
                                                         3.849621       0.208811
                                                         1.388401      -0.301641
                                                         0.496955      -0.274061
                                                         0.162492      -0.033677

                          1       2    3s               10.389228       0.303673
                                                         3.849621       0.240943
                                                         1.388401      -0.313066
                                                         0.496955      -0.043055
                                                         0.162492       0.213991

                          1       3    3px              10.389228      -1.530415
                                                         3.849621      -1.371928
                                                         1.388401      -0.761951
                                                         0.496955      -0.253695
                                                         0.162492      -0.035541
                          1       3    3py              10.389228      -1.530415
                                                         3.849621      -1.371928
                                                         1.388401      -0.761951
                                                         0.496955      -0.253695
                                                         0.162492      -0.035541
                          1       3    3pz              10.389228      -1.530415
                                                         3.849621      -1.371928
                                                         1.388401      -0.761951
                                                         0.496955      -0.253695
                                                         0.162492      -0.035541

                          1       4    4px              10.389228      -0.565392
                                                         3.849621      -0.038231
                                                         1.388401      -0.382373
                                                         0.496955       0.179070
                                                         0.162492       0.122714
                          1       4    4py              10.389228      -0.565392
                                                         3.849621      -0.038231
                                                         1.388401      -0.382373
                                                         0.496955       0.179070
                                                         0.162492       0.122714
                          1       4    4pz              10.389228      -0.565392
                                                         3.849621      -0.038231
                                                         1.388401      -0.382373
                                                         0.496955       0.179070
                                                         0.162492       0.122714

                          1       5    4dx2             10.389228       1.867377
                                                         3.849621       0.670994
                                                         1.388401       1.353441
                                                         0.496955       0.273538
                                                         0.162492       0.006620
                          1       5    4dxy             10.389228       3.234392
                                                         3.849621       1.162195
                                                         1.388401       2.344229
                                                         0.496955       0.473781
                                                         0.162492       0.011466
                          1       5    4dxz             10.389228       3.234392
                                                         3.849621       1.162195
                                                         1.388401       2.344229
                                                         0.496955       0.473781
                                                         0.162492       0.011466
                          1       5    4dy2             10.389228       1.867377
                                                         3.849621       0.670994
                                                         1.388401       1.353441
                                                         0.496955       0.273538
                                                         0.162492       0.006620
                          1       5    4dyz             10.389228       3.234392
                                                         3.849621       1.162195
                                                         1.388401       2.344229
                                                         0.496955       0.473781
                                                         0.162492       0.011466
                          1       5    4dz2             10.389228       1.867377
                                                         3.849621       0.670994
                                                         1.388401       1.353441
                                                         0.496955       0.273538
                                                         0.162492       0.006620

       Atomic covalent radius [Angstrom]:                                  0.730

       Atomic van der Waals radius [Angstrom]:                             1.520

     GTH Potential information for                                    GTH-PBE-q6

       Description:                       Goedecker-Teter-Hutter pseudopotential
                                           Goedecker et al., PRB 54, 1703 (1996)
                                          Hartwigsen et al., PRB 58, 3641 (1998)
                                                      Krack, TCA 114, 145 (2005)

       Gaussian exponent of the core charge distribution:               8.360253
       Electronic configuration (s p d ...):                               2   4

       Parameters of the local part of the GTH pseudopotential:

                          rloc        C1          C2          C3          C4
                        0.244554  -16.667215    2.487311

       Parameters of the non-local part of the GTH pseudopotential:

                   l      r(l)      h(i,j,l)

                   0    0.220956   18.337458
                   1    0.211332

  2. Atomic kind: H                                     Number of atoms:     196

     Orbital Basis Set                                        DZVP-MOLOPT-SR-GTH

       Number of orbital shell sets:                                           1
       Number of orbital shells:                                               3
       Number of primitive Cartesian functions:                                5
       Number of Cartesian basis functions:                                    5
       Number of spherical basis functions:                                    5
       Norm type:                                                              2

       Normalised Cartesian orbitals:

                        Set   Shell   Orbital            Exponent    Coefficient

                          1       1    2s               10.068468      -0.133023
                                                         2.680223      -0.177618
                                                         0.791502      -0.258419
                                                         0.239116      -0.107525
                                                         0.082193      -0.014019

                          1       2    3s               10.068468       0.344673
                                                         2.680223       1.819821
                                                         0.791502      -0.999069
                                                         0.239116       0.017430
                                                         0.082193       0.082660

                          1       3    3px              10.068468       0.155326
                                                         2.680223       0.367157
                                                         0.791502       0.311480
                                                         0.239116       0.080105
                                                         0.082193       0.033440
                          1       3    3py              10.068468       0.155326
                                                         2.680223       0.367157
                                                         0.791502       0.311480
                                                         0.239116       0.080105
                                                         0.082193       0.033440
                          1       3    3pz              10.068468       0.155326
                                                         2.680223       0.367157
                                                         0.791502       0.311480
                                                         0.239116       0.080105
                                                         0.082193       0.033440

       Atomic covalent radius [Angstrom]:                                  0.320

       Atomic van der Waals radius [Angstrom]:                             1.090

     GTH Potential information for                                    GTH-PBE-q1

       Description:                       Goedecker-Teter-Hutter pseudopotential
                                           Goedecker et al., PRB 54, 1703 (1996)
                                          Hartwigsen et al., PRB 58, 3641 (1998)
                                                      Krack, TCA 114, 145 (2005)

       Gaussian exponent of the core charge distribution:              12.500000
       Electronic configuration (s p d ...):                                   1

       Parameters of the local part of the GTH pseudopotential:

                          rloc        C1          C2          C3          C4
                        0.200000   -4.178900    0.724463

  3. Atomic kind: Pt                                    Number of atoms:     216

     Orbital Basis Set                      DZVP-A5-Q10-323-MOL-T1-DERIVED_SET-1

       Number of orbital shell sets:                                           1
       Number of orbital shells:                                               6
       Number of primitive Cartesian functions:                                5
       Number of Cartesian basis functions:                                   23
       Number of spherical basis functions:                                   20
       Norm type:                                                              2

       Normalised Cartesian orbitals:

                        Set   Shell   Orbital            Exponent    Coefficient

                          1       1    2s                2.521825       0.177473
                                                         1.453920      -0.063399
                                                         0.614053      -0.407089
                                                         0.232656       0.262254
                                                         0.074788       0.047371

                          1       2    3s                2.521825      -0.049056
                                                         1.453920       0.044904
                                                         0.614053      -0.009756
                                                         0.232656      -0.144709
                                                         0.074788       0.144085

                          1       3    3px               2.521825      -0.317572
                                                         1.453920       0.534826
                                                         0.614053      -0.489458
                                                         0.232656       0.245631
                                                         0.074788       0.018221
                          1       3    3py               2.521825      -0.317572
                                                         1.453920       0.534826
                                                         0.614053      -0.489458
                                                         0.232656       0.245631
                                                         0.074788       0.018221
                          1       3    3pz               2.521825      -0.317572
                                                         1.453920       0.534826
                                                         0.614053      -0.489458
                                                         0.232656       0.245631
                                                         0.074788       0.018221

                          1       4    4dx2              2.521825       3.008522
                                                         1.453920      -1.224251
                                                         0.614053       0.225691
                                                         0.232656       0.125144
                                                         0.074788      -0.015348
                          1       4    4dxy              2.521825       5.210912
                                                         1.453920      -2.120465
                                                         0.614053       0.390909
                                                         0.232656       0.216756
                                                         0.074788      -0.026584
                          1       4    4dxz              2.521825       5.210912
                                                         1.453920      -2.120465
                                                         0.614053       0.390909
                                                         0.232656       0.216756
                                                         0.074788      -0.026584
                          1       4    4dy2              2.521825       3.008522
                                                         1.453920      -1.224251
                                                         0.614053       0.225691
                                                         0.232656       0.125144
                                                         0.074788      -0.015348
                          1       4    4dyz              2.521825       5.210912
                                                         1.453920      -2.120465
                                                         0.614053       0.390909
                                                         0.232656       0.216756
                                                         0.074788      -0.026584
                          1       4    4dz2              2.521825       3.008522
                                                         1.453920      -1.224251
                                                         0.614053       0.225691
                                                         0.232656       0.125144
                                                         0.074788      -0.015348

                          1       5    5dx2              2.521825       0.698026
                                                         1.453920      -1.511486
                                                         0.614053      -0.335394
                                                         0.232656      -0.025564
                                                         0.074788      -0.002699
                          1       5    5dxy              2.521825       1.209017
                                                         1.453920      -2.617970
                                                         0.614053      -0.580920
                                                         0.232656      -0.044277
                                                         0.074788      -0.004674
                          1       5    5dxz              2.521825       1.209017
                                                         1.453920      -2.617970
                                                         0.614053      -0.580920
                                                         0.232656      -0.044277
                                                         0.074788      -0.004674
                          1       5    5dy2              2.521825       0.698026
                                                         1.453920      -1.511486
                                                         0.614053      -0.335394
                                                         0.232656      -0.025564
                                                         0.074788      -0.002699
                          1       5    5dyz              2.521825       1.209017
                                                         1.453920      -2.617970
                                                         0.614053      -0.580920
                                                         0.232656      -0.044277
                                                         0.074788      -0.004674
                          1       5    5dz2              2.521825       0.698026
                                                         1.453920      -1.511486
                                                         0.614053      -0.335394
                                                         0.232656      -0.025564
                                                         0.074788      -0.002699

                          1       6    6dx2              2.521825       0.831079
                                                         1.453920      -0.709226
                                                         0.614053      -0.137351
                                                         0.232656       0.068642
                                                         0.074788       0.011745
                          1       6    6dxy              2.521825       1.439472
                                                         1.453920      -1.228415
                                                         0.614053      -0.237899
                                                         0.232656       0.118891
                                                         0.074788       0.020343
                          1       6    6dxz              2.521825       1.439472
                                                         1.453920      -1.228415
                                                         0.614053      -0.237899
                                                         0.232656       0.118891
                                                         0.074788       0.020343
                          1       6    6dy2              2.521825       0.831079
                                                         1.453920      -0.709226
                                                         0.614053      -0.137351
                                                         0.232656       0.068642
                                                         0.074788       0.011745
                          1       6    6dyz              2.521825       1.439472
                                                         1.453920      -1.228415
                                                         0.614053      -0.237899
                                                         0.232656       0.118891
                                                         0.074788       0.020343
                          1       6    6dz2              2.521825       0.831079
                                                         1.453920      -0.709226
                                                         0.614053      -0.137351
                                                         0.232656       0.068642
                                                         0.074788       0.011745

       Atomic covalent radius [Angstrom]:                                  1.300

       Atomic van der Waals radius [Angstrom]:                             1.750

     GTH Potential information for                                   GTH-PBE-q10

       Description:                       Goedecker-Teter-Hutter pseudopotential
                                           Goedecker et al., PRB 54, 1703 (1996)
                                          Hartwigsen et al., PRB 58, 3641 (1998)
                                                      Krack, TCA 114, 145 (2005)

       Gaussian exponent of the core charge distribution:               1.317676
       Electronic configuration (s p d ...):                           1   0   9

       Parameters of the local part of the GTH pseudopotential:

                          rloc        C1          C2          C3          C4
                        0.616000   11.313635

       Parameters of the non-local part of the GTH pseudopotential:

                   l      r(l)      h(i,j,l)

                   0    0.550904    4.733491   -1.784594
                                   -1.784594    2.303901
                   1    0.674138    2.534798   -1.778066
                                   -1.778066    2.103836
                   2    0.457392   -7.264011    2.558665
                                    2.558665   -2.901253


 MOLECULE KIND INFORMATION


 All atoms are their own molecule, skipping detailed information


 TOTAL NUMBERS AND MAXIMUM NUMBERS

  Total number of            - Atomic kinds:                                   3
                             - Atoms:                                        510
                             - Shell sets:                                   510
                             - Shells:                                      2374
                             - Primitive Cartesian functions:               2550
                             - Cartesian basis functions:                   7320
                             - Spherical basis functions:                   6574

  Maximum angular momentum of- Orbital basis functions:                        2
                             - Local part of the GTH pseudopotential:          2
                             - Non-local part of the GTH pseudopotential:      4


 MODULE QUICKSTEP:  ATOMIC COORDINATES IN angstrom

 Atom  Kind  Element       X           Y           Z          Z(eff)       Mass
    1   1 O    8      10.350000    3.380000   36.037999       6.0000     15.9994
    2   2 H    1      11.270000    3.340000   35.777999       1.0000      1.0079
    3   2 H    1      10.120001    2.570000   36.518001       1.0000      1.0079
    4   1 O    8      26.690002    3.160000   39.228000       6.0000     15.9994
    5   2 H    1      26.830002    3.550000   38.317998       1.0000      1.0079
    6   2 H    1      27.390001    3.660000   39.718000       1.0000      1.0079
    7   1 O    8      12.730000  -23.940001   36.667999       6.0000     15.9994
    8   2 H    1      13.340001  -24.540003   37.117999       1.0000      1.0079
    9   2 H    1      12.580000  -24.320002   35.787998       1.0000      1.0079
   10   1 O    8     -12.930001    6.080000   32.827998       6.0000     15.9994
   11   2 H    1     -12.410001    6.080000   32.017999       1.0000      1.0079
   12   2 H    1     -12.380000    6.440001   33.577998       1.0000      1.0079
   13   1 O    8     -32.700001  -18.090002   37.318000       6.0000     15.9994
   14   2 H    1     -33.450005  -18.720001   37.487998       1.0000      1.0079
   15   2 H    1     -32.090000  -18.520000   36.648000       1.0000      1.0079
   16   1 O    8     -11.780001  -22.100000   30.408000       6.0000     15.9994
   17   2 H    1     -11.180000  -21.590002   30.987998       1.0000      1.0079
   18   2 H    1     -11.270000  -22.540001   29.677997       1.0000      1.0079
   19   1 O    8       8.410000   17.410000   29.057998       6.0000     15.9994
   20   2 H    1       7.970000   16.520000   29.228000       1.0000      1.0079
   21   2 H    1       9.330000   17.210001   29.458000       1.0000      1.0079
   22   1 O    8     -22.650002   24.300001   35.687999       6.0000     15.9994
   23   2 H    1     -21.900002   24.530001   35.097999       1.0000      1.0079
   24   2 H    1     -23.380001   24.080002   35.027999       1.0000      1.0079
   25   1 O    8     -19.030001   28.830002   39.287999       6.0000     15.9994
   26   2 H    1     -18.250000   28.630001   38.667999       1.0000      1.0079
   27   2 H    1     -19.510000   28.000002   39.318000       1.0000      1.0079
   28   1 O    8      -7.780001   -5.350000   33.628000       6.0000     15.9994
   29   2 H    1      -7.390000   -4.550000   33.187999       1.0000      1.0079
   30   2 H    1      -7.420001   -6.210001   33.117999       1.0000      1.0079
   31   1 O    8     -16.270000   44.590000   38.037999       6.0000     15.9994
   32   2 H    1     -15.820000   45.440002   38.387998       1.0000      1.0079
   33   2 H    1      -0.190000   44.790001   37.568000       1.0000      1.0079
   34   1 O    8      13.510000    3.370000   35.007999       6.0000     15.9994
   35   2 H    1       5.760000   18.710001   34.897998       1.0000      1.0079
   36   2 H    1      14.110001    2.590000   35.347999       1.0000      1.0079
   37   1 O    8       6.750000    2.110000   30.817998       6.0000     15.9994
   38   2 H    1       6.170001    2.820000   30.388000       1.0000      1.0079
   39   2 H    1       7.690001    2.420000   30.577998       1.0000      1.0079
   40   1 O    8     -18.610001   -5.670000   34.357999       6.0000     15.9994
   41   2 H    1     -19.290001   -4.930000   34.318000       1.0000      1.0079
   42   2 H    1     -17.800001   -5.270000   34.857999       1.0000      1.0079
   43   1 O    8       4.570000    8.050001   37.048000       6.0000     15.9994
   44   2 H    1       3.690000    8.440001   36.827998       1.0000      1.0079
   45   2 H    1       4.330000    7.530000   37.838001       1.0000      1.0079
   46   1 O    8      -6.730001   11.030001   33.057998       6.0000     15.9994
   47   2 H    1      -7.610001   11.110001   33.558000       1.0000      1.0079
   48   2 H    1      -6.040000   11.290001   33.717998       1.0000      1.0079
   49   1 O    8       7.880001   -5.620000   38.547998       6.0000     15.9994
   50   2 H    1       8.600000   -6.200000   38.877998       1.0000      1.0079
   51   2 H    1       7.550001   -5.120000   39.287999       1.0000      1.0079
   52   1 O    8     -42.310005    8.130000   29.138000       6.0000     15.9994
   53   2 H    1     -41.380001    8.140000   29.458000       1.0000      1.0079
   54   2 H    1     -42.590004    7.220001   29.377998       1.0000      1.0079
   55   1 O    8     -33.610001    3.530000   32.757999       6.0000     15.9994
   56   2 H    1     -33.460003    4.030000   31.937999       1.0000      1.0079
   57   2 H    1     -33.860001    4.250000   33.417999       1.0000      1.0079
   58   1 O    8     -11.680001   11.650001   38.447997       6.0000     15.9994
   59   2 H    1     -11.130000   10.960001   37.978000       1.0000      1.0079
   60   2 H    1     -12.580000   11.260000   38.638000       1.0000      1.0079
   61   1 O    8     -48.480000  -13.700001   29.228000       6.0000     15.9994
   62   2 H    1     -32.020000  -14.500000   29.658000       1.0000      1.0079
   63   2 H    1     -32.120003  -12.920000   29.658000       1.0000      1.0079
   64   1 O    8     -12.990000   22.650002   33.827998       6.0000     15.9994
   65   2 H    1     -13.230000   21.690002   33.728000       1.0000      1.0079
   66   2 H    1     -12.030001   22.750000   34.037998       1.0000      1.0079
   67   1 O    8       2.740000   -9.830000   31.128000       6.0000     15.9994
   68   2 H    1       3.630000   -9.940001   30.747999       1.0000      1.0079
   69   2 H    1       2.370000   -8.950001   31.017997       1.0000      1.0079
   70   1 O    8     -22.600000   25.630001   39.367999       6.0000     15.9994
   71   2 H    1     -23.250000   25.770000   38.617997       1.0000      1.0079
   72   2 H    1     -22.790001   24.700001   39.637998       1.0000      1.0079
   73   1 O    8      21.070002   -3.130000   37.908000       6.0000     15.9994
   74   2 H    1      20.690001   -3.650000   37.157998       1.0000      1.0079
   75   2 H    1      20.490000   -3.310000   38.697999       1.0000      1.0079
   76   1 O    8      33.530003   -1.810000   37.218000       6.0000     15.9994
   77   2 H    1      34.260002   -1.400000   37.787998       1.0000      1.0079
   78   2 H    1      33.410000   -1.150000   36.477998       1.0000      1.0079
   79   1 O    8      36.230003    2.530000   30.357997       6.0000     15.9994
   80   2 H    1      36.110001    2.630000   31.317998       1.0000      1.0079
   81   2 H    1      36.540001    1.620000   30.157996       1.0000      1.0079
   82   1 O    8     -23.090000   41.150002   30.267997       6.0000     15.9994
   83   2 H    1     -23.180000   40.830002   31.217998       1.0000      1.0079
   84   2 H    1     -22.780001   42.070004   30.367996       1.0000      1.0079
   85   1 O    8      15.330001    0.580000   29.987998       6.0000     15.9994
   86   2 H    1      14.400001    0.930000   30.017997       1.0000      1.0079
   87   2 H    1      15.400001   -0.260000   29.487998       1.0000      1.0079
   88   1 O    8      -4.930000   31.620003   33.107999       6.0000     15.9994
   89   2 H    1      -4.310000   32.080002   33.747999       1.0000      1.0079
   90   2 H    1      -5.850000   31.990002   33.147998       1.0000      1.0079
   91   1 O    8      13.910000    3.990000   30.257999       6.0000     15.9994
   92   2 H    1      13.590001    3.080000   30.367996       1.0000      1.0079
   93   2 H    1      13.750001    4.120000   29.307998       1.0000      1.0079
   94   1 O    8      -9.240000   -1.200000   36.327998       6.0000     15.9994
   95   2 H    1      -9.720000   -1.690000   35.677999       1.0000      1.0079
   96   2 H    1      -8.510000   -1.840000   36.637998       1.0000      1.0079
   97   1 O    8      42.410004  -22.650002   34.787999       6.0000     15.9994
   98   2 H    1      42.470001  -22.430000   35.717998       1.0000      1.0079
   99   2 H    1      42.760002  -21.930000   34.218000       1.0000      1.0079
  100   1 O    8       9.500000   -7.700000   39.107997       6.0000     15.9994
  101   2 H    1       0.550000    6.470000   39.808000       1.0000      1.0079
  102   2 H    1       9.340000   -8.210000   38.267999       1.0000      1.0079
  103   1 O    8     -21.650002   47.630001   37.817998       6.0000     15.9994
  104   2 H    1      -4.600000   46.700001   37.657998       1.0000      1.0079
  105   2 H    1     -21.020000   47.780003   38.638000       1.0000      1.0079
  106   1 O    8       5.590000   18.470001   39.048000       6.0000     15.9994
  107   2 H    1       5.230000   17.580002   39.128000       1.0000      1.0079
  108   2 H    1       6.340000   18.640001   39.648000       1.0000      1.0079
  109   1 O    8      23.930000   -6.790000   30.338001       6.0000     15.9994
  110   2 H    1      24.230001   -5.840001   30.517997       1.0000      1.0079
  111   2 H    1      24.190002   -6.850000   29.377998       1.0000      1.0079
  112   1 O    8       6.940000    8.420001   31.827998       6.0000     15.9994
  113   2 H    1       6.800000    9.180000   31.228000       1.0000      1.0079
  114   2 H    1       6.750000    8.770000   32.787998       1.0000      1.0079
  115   1 O    8      11.090001    7.100000   37.557998       6.0000     15.9994
  116   2 H    1      11.710000    6.330000   37.397998       1.0000      1.0079
  117   2 H    1      10.210000    6.730001   37.768001       1.0000      1.0079
  118   1 O    8     -12.570001   12.670001   30.187999       6.0000     15.9994
  119   2 H    1     -12.540001   13.260001   29.447997       1.0000      1.0079
  120   2 H    1     -12.220000   13.170000   31.037999       1.0000      1.0079
  121   1 O    8       2.080000   -6.970000   30.367996       6.0000     15.9994
  122   2 H    1       1.830000   -6.620001   31.228000       1.0000      1.0079
  123   2 H    1       2.940000   -6.570000   30.287998       1.0000      1.0079
  124   1 O    8     -25.520000    6.380000   37.617999       6.0000     15.9994
  125   2 H    1     -26.280001    5.800000   37.397998       1.0000      1.0079
  126   2 H    1     -25.690001    6.860001   38.477998       1.0000      1.0079
  127   1 O    8       6.510000   -5.310000   34.447999       6.0000     15.9994
  128   2 H    1       7.510000   -5.310000   34.267999       1.0000      1.0079
  129   2 H    1       6.530001   -5.780000   35.347999       1.0000      1.0079
  130   1 O    8     -20.350000   47.860001   29.837997       6.0000     15.9994
  131   2 H    1     -20.420000   47.750000   28.767997       1.0000      1.0079
  132   2 H    1     -21.250000   47.520004   30.067996       1.0000      1.0079
  133   1 O    8      13.690001   21.320002   34.917999       6.0000     15.9994
  134   2 H    1      22.810001    7.320001   34.587999       1.0000      1.0079
  135   2 H    1      -3.470000   21.790001   35.807998       1.0000      1.0079
  136   1 O    8       2.380000  -14.330001   36.147998       6.0000     15.9994
  137   2 H    1       1.550000  -14.270000   36.648000       1.0000      1.0079
  138   2 H    1       3.080000  -14.230001   36.837999       1.0000      1.0079
  139   1 O    8       1.460000   13.340001   30.607999       6.0000     15.9994
  140   2 H    1       0.600000   13.020000   30.907998       1.0000      1.0079
  141   2 H    1       2.150000   12.630000   30.557998       1.0000      1.0079
  142   1 O    8       4.360000   16.180000   30.527999       6.0000     15.9994
  143   2 H    1       3.640000   15.790001   29.947997       1.0000      1.0079
  144   2 H    1       4.060000   16.410000   31.458000       1.0000      1.0079
  145   1 O    8      -5.070000   66.740005   39.748000       6.0000     15.9994
  146   2 H    1      -5.330000   66.150002   38.958000       1.0000      1.0079
  147   2 H    1      -5.390000   66.130005   40.537999       1.0000      1.0079
  148   1 O    8     -20.100000   -0.820000   32.417999       6.0000     15.9994
  149   2 H    1     -19.600000    0.040000   32.487998       1.0000      1.0079
  150   2 H    1     -20.960003   -0.660000   32.887998       1.0000      1.0079
  151   1 O    8     -13.830000   -0.160000   29.927997       6.0000     15.9994
  152   2 H    1     -13.980001   -0.200000   28.897998       1.0000      1.0079
  153   2 H    1     -12.770000   -0.130000   29.907996       1.0000      1.0079
  154   1 O    8       0.800000  -11.730001   30.027999       6.0000     15.9994
  155   2 H    1       1.450000  -11.030001   30.417999       1.0000      1.0079
  156   2 H    1       0.610000  -11.410000   29.097999       1.0000      1.0079
  157   1 O    8      -8.640000   44.060001   35.287998       6.0000     15.9994
  158   2 H    1      -8.590000   43.960003   34.277997       1.0000      1.0079
  159   2 H    1      -7.630000   44.310001   35.447999       1.0000      1.0079
  160   1 O    8      15.840001   49.669998   30.108001       6.0000     15.9994
  161   2 H    1      15.790001   49.370003   31.068000       1.0000      1.0079
  162   2 H    1      15.700001   48.820004   29.647998       1.0000      1.0079
  163   1 O    8      15.720000  -12.660000   36.247999       6.0000     15.9994
  164   2 H    1      15.590000  -13.080001   35.457998       1.0000      1.0079
  165   2 H    1      15.290001  -11.810001   36.128000       1.0000      1.0079
  166   1 O    8     -32.370003   -0.110000   38.708000       6.0000     15.9994
  167   2 H    1     -32.200005   -0.080000   39.687999       1.0000      1.0079
  168   2 H    1     -32.570004    0.820000   38.547998       1.0000      1.0079
  169   1 O    8     -12.970000    6.630001   39.218000       6.0000     15.9994
  170   2 H    1     -13.960000    6.570000   39.277999       1.0000      1.0079
  171   2 H    1     -12.580000    6.930000   40.027999       1.0000      1.0079
  172   1 O    8     -17.910002   -9.610001   32.747999       6.0000     15.9994
  173   2 H    1     -18.030001   -8.840000   33.307998       1.0000      1.0079
  174   2 H    1     -17.010000  -10.020000   32.827998       1.0000      1.0079
  175   1 O    8     -16.600000   25.200003   35.747999       6.0000     15.9994
  176   2 H    1     -15.680000   24.820002   35.917999       1.0000      1.0079
  177   2 H    1     -16.630001   26.030003   36.377998       1.0000      1.0079
  178   1 O    8      20.120001   27.210003   34.777999       6.0000     15.9994
  179   2 H    1      19.820002   26.710003   35.568000       1.0000      1.0079
  180   2 H    1      28.330002   13.560000   34.927999       1.0000      1.0079
  181   1 O    8      -3.910000    8.630000   31.147998       6.0000     15.9994
  182   2 H    1      -3.070000    8.250000   30.817998       1.0000      1.0079
  183   2 H    1      -3.970000    8.550000   32.127998       1.0000      1.0079
  184   1 O    8      22.750000   15.540000   36.047998       6.0000     15.9994
  185   2 H    1      23.670002   15.340000   35.757999       1.0000      1.0079
  186   2 H    1      22.369999   14.630001   36.167999       1.0000      1.0079
  187   1 O    8       2.440000   -3.810000   39.958000       6.0000     15.9994
  188   2 H    1       2.800000   -4.740000   39.888000       1.0000      1.0079
  189   2 H    1       2.710000   -3.600000   40.858001       1.0000      1.0079
  190   1 O    8      14.000001    7.890000   36.477998       6.0000     15.9994
  191   2 H    1      13.680000    6.930000   36.597999       1.0000      1.0079
  192   2 H    1      -2.310000    8.130000   37.248000       1.0000      1.0079
  193   1 O    8     -34.910004   34.350002   34.497999       6.0000     15.9994
  194   2 H    1     -34.160000   34.350002   35.227998       1.0000      1.0079
  195   2 H    1     -35.080002   35.310001   34.318000       1.0000      1.0079
  196   1 O    8      14.290000   13.830000   38.377998       6.0000     15.9994
  197   2 H    1      13.630000   13.130001   38.237998       1.0000      1.0079
  198   2 H    1      15.060000   13.550000   37.797998       1.0000      1.0079
  199   1 O    8       2.540000    0.620000   35.208000       6.0000     15.9994
  200   2 H    1      -5.350000   15.570001   36.007999       1.0000      1.0079
  201   2 H    1       2.700000    1.410000   34.587999       1.0000      1.0079
  202   1 O    8      29.600000   30.090000   38.037999       6.0000     15.9994
  203   2 H    1      21.890001   44.190002   38.468000       1.0000      1.0079
  204   2 H    1      21.709999   45.150002   37.327998       1.0000      1.0079
  205   1 O    8       9.550000   17.400002   38.428001       6.0000     15.9994
  206   2 H    1       8.880001   17.540001   39.158000       1.0000      1.0079
  207   2 H    1      10.400001   17.889999   38.588001       1.0000      1.0079
  208   1 O    8      19.660000   -5.120000   36.147998       6.0000     15.9994
  209   2 H    1      19.720001   -5.860000   36.748000       1.0000      1.0079
  210   2 H    1      19.940001   -5.630000   35.357997       1.0000      1.0079
  211   1 O    8      22.610001   28.930000   30.007999       6.0000     15.9994
  212   2 H    1      22.780001   28.460003   29.127998       1.0000      1.0079
  213   2 H    1      22.970001   29.860001   30.027999       1.0000      1.0079
  214   1 O    8     -35.690002   25.260000   30.208000       6.0000     15.9994
  215   2 H    1     -36.530003   25.740002   30.157996       1.0000      1.0079
  216   2 H    1     -35.620003   24.830000   29.307998       1.0000      1.0079
  217   1 O    8     -10.080000  -19.810001   37.577998       6.0000     15.9994
  218   2 H    1      -9.450001  -19.560001   36.857999       1.0000      1.0079
  219   2 H    1     -10.580001  -20.620001   37.327998       1.0000      1.0079
  220   1 O    8       2.390000   10.370001   30.297996       6.0000     15.9994
  221   2 H    1       1.450000   10.470000   30.237998       1.0000      1.0079
  222   2 H    1       2.820000   10.770000   29.417999       1.0000      1.0079
  223   1 O    8      18.640001  -23.640001   29.257999       6.0000     15.9994
  224   2 H    1      18.830002  -22.660000   29.298000       1.0000      1.0079
  225   2 H    1      17.750000  -23.860001   29.638000       1.0000      1.0079
  226   1 O    8     -15.440001   36.220001   32.197997       6.0000     15.9994
  227   2 H    1     -15.470000   36.290001   31.208000       1.0000      1.0079
  228   2 H    1     -14.470000   35.980003   32.367997       1.0000      1.0079
  229   1 O    8      11.390000   22.510002   29.498000       6.0000     15.9994
  230   2 H    1      11.120001   23.400002   29.827998       1.0000      1.0079
  231   2 H    1      12.280001   22.210003   29.867999       1.0000      1.0079
  232   1 O    8      17.030001   -1.740000   29.187999       6.0000     15.9994
  233   2 H    1      17.750000   -2.270000   29.658000       1.0000      1.0079
  234   2 H    1      16.280001   -2.410000   29.487998       1.0000      1.0079
  235   1 O    8       5.270000    3.450000   33.147998       6.0000     15.9994
  236   2 H    1       5.430000    2.780000   32.517999       1.0000      1.0079
  237   2 H    1       6.070001    4.000000   33.167999       1.0000      1.0079
  238   1 O    8     -22.250002    5.540000   33.907998       6.0000     15.9994
  239   2 H    1     -22.220001    5.270000   32.978000       1.0000      1.0079
  240   2 H    1     -23.170002    5.590000   34.187999       1.0000      1.0079
  241   1 O    8     -16.480001    5.190001   36.807998       6.0000     15.9994
  242   2 H    1     -15.550001    5.180000   36.458000       1.0000      1.0079
  243   2 H    1     -16.600000    4.340000   37.277999       1.0000      1.0079
  244   1 O    8       4.670000   10.790000   34.417999       6.0000     15.9994
  245   2 H    1      -3.540000   26.280001   34.837997       1.0000      1.0079
  246   2 H    1       4.060000   10.980000   33.638000       1.0000      1.0079
  247   1 O    8     -38.330002   15.470000   37.548000       6.0000     15.9994
  248   2 H    1     -38.920002   14.910001   38.027997       1.0000      1.0079
  249   2 H    1     -37.440002   15.040001   37.647998       1.0000      1.0079
  250   1 O    8     -20.620001   -1.710000   35.958000       6.0000     15.9994
  251   2 H    1     -20.490000   -2.130000   36.798000       1.0000      1.0079
  252   2 H    1     -21.520002   -1.350000   35.917999       1.0000      1.0079
  253   1 O    8      19.340002  -26.670000   33.317998       6.0000     15.9994
  254   2 H    1      18.560001  -26.120003   33.157998       1.0000      1.0079
  255   2 H    1      20.220001  -26.190002   33.197999       1.0000      1.0079
  256   1 O    8     -19.060001   11.920000   34.337999       6.0000     15.9994
  257   2 H    1     -19.130001   10.880001   34.478000       1.0000      1.0079
  258   2 H    1     -20.000000   12.060001   34.578000       1.0000      1.0079
  259   1 O    8       2.660000   11.310000   32.747999       6.0000     15.9994
  260   2 H    1       2.550000   12.350000   32.697997       1.0000      1.0079
  261   2 H    1       2.610000   11.000000   31.787999       1.0000      1.0079
  262   1 O    8      -9.420000   15.420000   32.878000       6.0000     15.9994
  263   2 H    1      -9.480001   15.140000   31.897998       1.0000      1.0079
  264   2 H    1      -9.050000   16.350000   32.897998       1.0000      1.0079
  265   1 O    8      14.730001   19.340002   36.437999       6.0000     15.9994
  266   2 H    1      22.990000    5.350000   35.687999       1.0000      1.0079
  267   2 H    1      13.840000   19.320000   36.958000       1.0000      1.0079
  268   1 O    8      17.740000   17.880001   33.477998       6.0000     15.9994
  269   2 H    1      17.220001   16.970001   33.638000       1.0000      1.0079
  270   2 H    1      18.020000   18.070000   34.377998       1.0000      1.0079
  271   1 O    8      -8.790001    0.560000   33.798000       6.0000     15.9994
  272   2 H    1      -8.880001    0.090000   32.957998       1.0000      1.0079
  273   2 H    1      -8.490001   -0.120000   34.397998       1.0000      1.0079
  274   1 O    8       9.370001   37.530003   32.617999       6.0000     15.9994
  275   2 H    1       9.690001   38.430000   32.827998       1.0000      1.0079
  276   2 H    1       8.380001   37.750000   32.367997       1.0000      1.0079
  277   1 O    8       2.770000   34.570004   35.777999       6.0000     15.9994
  278   2 H    1       2.900000   34.760002   34.847999       1.0000      1.0079
  279   2 H    1       3.480000   34.010002   36.047998       1.0000      1.0079
  280   1 O    8      -8.740000   24.920002   30.248000       6.0000     15.9994
  281   2 H    1      -8.940001   25.140001   29.228000       1.0000      1.0079
  282   2 H    1      -9.180000   25.740002   30.677999       1.0000      1.0079
  283   1 O    8       4.650001   -4.050000   29.417999       6.0000     15.9994
  284   2 H    1     -12.400000   -4.920000   29.897998       1.0000      1.0079
  285   2 H    1       3.830000   -3.490000   29.647998       1.0000      1.0079
  286   1 O    8      -0.450000   34.290001   30.617999       6.0000     15.9994
  287   2 H    1      -1.300000   33.750004   30.367996       1.0000      1.0079
  288   2 H    1      -0.830000   35.140003   30.928001       1.0000      1.0079
  289   1 O    8      27.840002  -29.710003   33.347999       6.0000     15.9994
  290   2 H    1      27.880001  -28.860001   32.917999       1.0000      1.0079
  291   2 H    1      27.610001  -29.380001   34.257999       1.0000      1.0079
  292   1 O    8      -1.290000   12.360001   31.617999       6.0000     15.9994
  293   2 H    1      -1.580000   12.360001   32.548000       1.0000      1.0079
  294   2 H    1      -2.060000   12.900001   31.317998       1.0000      1.0079
  295   3 Pt  78       1.660000    0.660000   26.728000      10.0000    195.0840
  296   3 Pt  78       4.540000    0.590000   26.858001      10.0000    195.0840
  297   3 Pt  78       7.320001    0.560000   26.917999      10.0000    195.0840
  298   3 Pt  78      10.050000    0.810000   26.947997      10.0000    195.0840
  299   3 Pt  78      12.920000    0.770000   26.747997      10.0000    195.0840
  300   3 Pt  78      15.640001    0.640000   26.747997      10.0000    195.0840
  301   3 Pt  78       3.150000    3.120000   26.977996      10.0000    195.0840
  302   3 Pt  78       5.810000    2.960000   26.877998      10.0000    195.0840
  303   3 Pt  78       8.620001    3.080000   26.798000      10.0000    195.0840
  304   3 Pt  78      11.560000    3.180000   26.897998      10.0000    195.0840
  305   3 Pt  78      14.330001    3.120000   26.907996      10.0000    195.0840
  306   3 Pt  78       0.270000    3.100000   26.917999      10.0000    195.0840
  307   3 Pt  78       4.540000    5.600000   27.007999      10.0000    195.0840
  308   3 Pt  78       7.180000    5.440001   26.928001      10.0000    195.0840
  309   3 Pt  78      10.130000    5.510000   27.068000      10.0000    195.0840
  310   3 Pt  78      12.950001    5.620000   26.897998      10.0000    195.0840
  311   3 Pt  78      -1.200000    5.530000   26.728000      10.0000    195.0840
  312   3 Pt  78       1.840000    5.560000   27.097999      10.0000    195.0840
  313   3 Pt  78       5.920000    7.930000   26.928001      10.0000    195.0840
  314   3 Pt  78       8.680000    7.930000   26.977996      10.0000    195.0840
  315   3 Pt  78      11.560000    7.990000   26.798000      10.0000    195.0840
  316   3 Pt  78      -2.500000    7.970000   26.788001      10.0000    195.0840
  317   3 Pt  78       0.290000    7.850000   26.858001      10.0000    195.0840
  318   3 Pt  78       3.080000    7.960001   27.088001      10.0000    195.0840
  319   3 Pt  78       7.160000   10.410000   26.847999      10.0000    195.0840
  320   3 Pt  78      10.110001   10.370001   27.007999      10.0000    195.0840
  321   3 Pt  78      -3.910000   10.490000   27.057998      10.0000    195.0840
  322   3 Pt  78      -1.000000   10.420000   26.967998      10.0000    195.0840
  323   3 Pt  78       1.750000   10.490000   26.858001      10.0000    195.0840
  324   3 Pt  78       4.410000   10.370001   26.858001      10.0000    195.0840
  325   3 Pt  78       8.710001   12.770000   26.937999      10.0000    195.0840
  326   3 Pt  78      -5.570001   12.940001   26.847999      10.0000    195.0840
  327   3 Pt  78      -2.440000   12.690001   26.888000      10.0000    195.0840
  328   3 Pt  78       0.340000   12.810000   26.877998      10.0000    195.0840
  329   3 Pt  78       3.130000   12.950001   26.917999      10.0000    195.0840
  330   3 Pt  78       5.780000   12.860001   26.837997      10.0000    195.0840
  331   3 Pt  78       0.140000    1.540000   24.467998      10.0000    195.0840
  332   3 Pt  78       2.970000    1.560000   24.487998      10.0000    195.0840
  333   3 Pt  78       5.810000    1.510000   24.487998      10.0000    195.0840
  334   3 Pt  78       8.690001    1.530000   24.437999      10.0000    195.0840
  335   3 Pt  78      11.510000    1.510000   24.568000      10.0000    195.0840
  336   3 Pt  78      14.280001    1.370000   24.507999      10.0000    195.0840
  337   3 Pt  78       1.710000    3.890000   24.667999      10.0000    195.0840
  338   3 Pt  78       4.600000    4.080000   24.627998      10.0000    195.0840
  339   3 Pt  78       7.370000    4.040000   24.407996      10.0000    195.0840
  340   3 Pt  78      10.030001    3.910000   24.647998      10.0000    195.0840
  341   3 Pt  78      12.860001    3.950000   24.498000      10.0000    195.0840
  342   3 Pt  78      -1.200000    3.930000   24.568000      10.0000    195.0840
  343   3 Pt  78       3.000000    6.380000   24.627998      10.0000    195.0840
  344   3 Pt  78       5.780000    6.420000   24.417999      10.0000    195.0840
  345   3 Pt  78       8.670000    6.410000   24.677997      10.0000    195.0840
  346   3 Pt  78      11.470001    6.330000   24.547996      10.0000    195.0840
  347   3 Pt  78      -2.590000    6.380000   24.487998      10.0000    195.0840
  348   3 Pt  78       0.270000    6.240000   24.547996      10.0000    195.0840
  349   3 Pt  78       4.440001    8.910000   24.498000      10.0000    195.0840
  350   3 Pt  78       7.220001    8.830000   24.518001      10.0000    195.0840
  351   3 Pt  78      10.040001    8.820001   24.737998      10.0000    195.0840
  352   3 Pt  78      -3.920000    8.810000   24.507999      10.0000    195.0840
  353   3 Pt  78      -1.110000    8.740000   24.407996      10.0000    195.0840
  354   3 Pt  78       1.670000    8.800000   24.627998      10.0000    195.0840
  355   3 Pt  78       5.860000   11.330000   24.487998      10.0000    195.0840
  356   3 Pt  78       8.670000   11.260000   24.658000      10.0000    195.0840
  357   3 Pt  78      -5.180000   11.240001   24.717998      10.0000    195.0840
  358   3 Pt  78      -2.490000   11.120001   24.607997      10.0000    195.0840
  359   3 Pt  78       0.160000   11.150000   24.518001      10.0000    195.0840
  360   3 Pt  78       2.980000   11.380000   24.588001      10.0000    195.0840
  361   3 Pt  78       7.180000   13.610001   24.498000      10.0000    195.0840
  362   3 Pt  78      -6.820001   13.720001   24.527999      10.0000    195.0840
  363   3 Pt  78      -3.970000   13.670001   24.627998      10.0000    195.0840
  364   3 Pt  78      -1.190000   13.670001   24.458000      10.0000    195.0840
  365   3 Pt  78       1.530000   13.730000   24.498000      10.0000    195.0840
  366   3 Pt  78       4.440001   13.740001   24.437999      10.0000    195.0840
  367   3 Pt  78      -8.280001   14.610001   22.237998      10.0000    195.0840
  368   3 Pt  78      -5.410000   14.500000   22.357997      10.0000    195.0840
  369   3 Pt  78      -2.560000   14.490002   22.248000      10.0000    195.0840
  370   3 Pt  78       0.130000   14.440001   22.167999      10.0000    195.0840
  371   3 Pt  78       2.990000   14.480001   22.217998      10.0000    195.0840
  372   3 Pt  78       5.820000   14.540001   22.097995      10.0000    195.0840
  373   3 Pt  78       1.560000    2.430000   22.297996      10.0000    195.0840
  374   3 Pt  78       4.480000    2.430000   22.257999      10.0000    195.0840
  375   3 Pt  78       7.240000    2.380000   22.178001      10.0000    195.0840
  376   3 Pt  78       9.990001    2.270000   22.178001      10.0000    195.0840
  377   3 Pt  78      12.970000    2.350000   22.167999      10.0000    195.0840
  378   3 Pt  78      -1.270000    2.320000   22.208000      10.0000    195.0840
  379   3 Pt  78       3.090000    4.890000   22.307998      10.0000    195.0840
  380   3 Pt  78       5.830000    4.840000   22.187999      10.0000    195.0840
  381   3 Pt  78       8.710001    4.790000   22.147998      10.0000    195.0840
  382   3 Pt  78      11.400002    4.720000   22.167999      10.0000    195.0840
  383   3 Pt  78      -2.660000    4.740000   22.248000      10.0000    195.0840
  384   3 Pt  78       0.210000    4.750000   22.248000      10.0000    195.0840
  385   3 Pt  78       4.410000    7.230001   22.257999      10.0000    195.0840
  386   3 Pt  78       7.160000    7.170000   22.277999      10.0000    195.0840
  387   3 Pt  78       9.990001    7.310000   22.357997      10.0000    195.0840
  388   3 Pt  78      -4.190001    7.140000   22.267997      10.0000    195.0840
  389   3 Pt  78      -1.140000    7.100000   22.167999      10.0000    195.0840
  390   3 Pt  78       1.600000    7.150001   22.318000      10.0000    195.0840
  391   3 Pt  78       5.820000    9.730001   22.227996      10.0000    195.0840
  392   3 Pt  78       8.640000    9.640000   22.347999      10.0000    195.0840
  393   3 Pt  78      -5.390000    9.660000   22.367999      10.0000    195.0840
  394   3 Pt  78      -2.580000    9.610001   22.307998      10.0000    195.0840
  395   3 Pt  78       0.270000    9.590000   22.237998      10.0000    195.0840
  396   3 Pt  78       3.040000    9.650001   22.178001      10.0000    195.0840
  397   3 Pt  78       7.170000   12.150001   22.127998      10.0000    195.0840
  398   3 Pt  78      -6.930000   12.100000   22.388000      10.0000    195.0840
  399   3 Pt  78      -4.080000   12.000000   22.307998      10.0000    195.0840
  400   3 Pt  78      -1.240000   11.970000   22.197997      10.0000    195.0840
  401   3 Pt  78       1.580000   12.060001   22.157996      10.0000    195.0840
  402   3 Pt  78       4.410000   12.140001   22.267997      10.0000    195.0840
  403   3 Pt  78       1.570000    0.740000   20.020000      10.0000    195.0840
  404   3 Pt  78       4.430000    0.610000   20.050000      10.0000    195.0840
  405   3 Pt  78       7.200000    0.660000   19.930000      10.0000    195.0840
  406   3 Pt  78       9.960001    0.680000   19.890000      10.0000    195.0840
  407   3 Pt  78      12.800001    0.730000   19.820000      10.0000    195.0840
  408   3 Pt  78      15.610001    0.670000   19.830000      10.0000    195.0840
  409   3 Pt  78       3.050000    3.110000   19.950000      10.0000    195.0840
  410   3 Pt  78       5.700001    3.180000   19.850000      10.0000    195.0840
  411   3 Pt  78       8.510000    3.160000   19.850000      10.0000    195.0840
  412   3 Pt  78      11.300000    3.080000   19.900000      10.0000    195.0840
  413   3 Pt  78      14.190001    3.070000   19.850000      10.0000    195.0840
  414   3 Pt  78       0.210000    3.070000   19.830000      10.0000    195.0840
  415   3 Pt  78       4.370000    5.620000   19.960000      10.0000    195.0840
  416   3 Pt  78       7.120000    5.730000   19.940000      10.0000    195.0840
  417   3 Pt  78       9.970000    5.610001   19.860000      10.0000    195.0840
  418   3 Pt  78      12.760000    5.470000   19.940000      10.0000    195.0840
  419   3 Pt  78      -1.230000    5.480001   19.910000      10.0000    195.0840
  420   3 Pt  78       1.670000    5.510000   19.950000      10.0000    195.0840
  421   3 Pt  78       5.880000    8.090000   19.890000      10.0000    195.0840
  422   3 Pt  78       8.610001    8.100000   19.980000      10.0000    195.0840
  423   3 Pt  78      11.420001    8.030001   19.910000      10.0000    195.0840
  424   3 Pt  78      -2.660000    7.950000   19.900000      10.0000    195.0840
  425   3 Pt  78       0.170000    7.950000   19.890000      10.0000    195.0840
  426   3 Pt  78       3.030000    7.970000   19.950000      10.0000    195.0840
  427   3 Pt  78       7.220001   10.510000   19.980000      10.0000    195.0840
  428   3 Pt  78       9.990001   10.500001   20.080000      10.0000    195.0840
  429   3 Pt  78      -4.050000   10.400001   20.040000      10.0000    195.0840
  430   3 Pt  78      -1.260000   10.370001   19.860000      10.0000    195.0840
  431   3 Pt  78       1.450000   10.420000   19.870000      10.0000    195.0840
  432   3 Pt  78       4.330000   10.470000   19.950000      10.0000    195.0840
  433   3 Pt  78       8.610001   12.960000   19.880000      10.0000    195.0840
  434   3 Pt  78      -5.530000   12.800001   20.140000      10.0000    195.0840
  435   3 Pt  78      -2.680000   12.760000   19.920000      10.0000    195.0840
  436   3 Pt  78       0.060000   12.790001   19.830000      10.0000    195.0840
  437   3 Pt  78       2.840000   12.900001   19.800000      10.0000    195.0840
  438   3 Pt  78       5.740000   12.970000   19.860000      10.0000    195.0840
  439   3 Pt  78       0.230000    1.510000   17.480000      10.0000    195.0840
  440   3 Pt  78       2.970000    1.530000   17.760000      10.0000    195.0840
  441   3 Pt  78       5.740000    1.540000   17.690000      10.0000    195.0840
  442   3 Pt  78       8.580000    1.410000   17.510000      10.0000    195.0840
  443   3 Pt  78      11.340000    1.620000   17.520000      10.0000    195.0840
  444   3 Pt  78      14.210001    1.470000   17.450000      10.0000    195.0840
  445   3 Pt  78       1.560000    4.000000   17.580000      10.0000    195.0840
  446   3 Pt  78       4.400000    3.960000   17.570000      10.0000    195.0840
  447   3 Pt  78       7.180000    4.120000   17.630000      10.0000    195.0840
  448   3 Pt  78       9.940001    4.010000   17.590000      10.0000    195.0840
  449   3 Pt  78      12.730000    3.910000   17.600000      10.0000    195.0840
  450   3 Pt  78      -1.260000    3.840000   17.550000      10.0000    195.0840
  451   3 Pt  78       2.930000    6.340000   17.660000      10.0000    195.0840
  452   3 Pt  78       5.680000    6.410000   17.580000      10.0000    195.0840
  453   3 Pt  78       8.600000    6.530001   17.520000      10.0000    195.0840
  454   3 Pt  78      11.410000    6.440001   17.540000      10.0000    195.0840
  455   3 Pt  78      -2.730000    6.380000   17.670000      10.0000    195.0840
  456   3 Pt  78       0.120000    6.360001   17.700000      10.0000    195.0840
  457   3 Pt  78       4.360000    8.870000   17.690000      10.0000    195.0840
  458   3 Pt  78       7.170000    8.950001   17.470000      10.0000    195.0840
  459   3 Pt  78      10.050000    8.910000   17.570000      10.0000    195.0840
  460   3 Pt  78      -4.040000    8.890000   17.760000      10.0000    195.0840
  461   3 Pt  78      -1.250000    8.820001   17.590000      10.0000    195.0840
  462   3 Pt  78       1.530000    8.770000   17.610000      10.0000    195.0840
  463   3 Pt  78       5.710001   11.370001   17.660000      10.0000    195.0840
  464   3 Pt  78       8.600000   11.300000   17.710000      10.0000    195.0840
  465   3 Pt  78      -5.450000   11.310000   17.660000      10.0000    195.0840
  466   3 Pt  78      -2.670000   11.290001   17.530000      10.0000    195.0840
  467   3 Pt  78       0.080000   11.290001   17.550000      10.0000    195.0840
  468   3 Pt  78       2.870000   11.260000   17.480000      10.0000    195.0840
  469   3 Pt  78       7.170000   13.700001   17.520000      10.0000    195.0840
  470   3 Pt  78      -6.800000   13.720001   17.700000      10.0000    195.0840
  471   3 Pt  78      -4.060000   13.730000   17.730000      10.0000    195.0840
  472   3 Pt  78      -1.350000   13.760000   17.640000      10.0000    195.0840
  473   3 Pt  78       1.560000   13.740001   17.470000      10.0000    195.0840
  474   3 Pt  78       4.350000   13.680000   17.450000      10.0000    195.0840
  475   3 Pt  78      -8.320000   14.540001   15.320000      10.0000    195.0840
  476   3 Pt  78      -5.530000   14.670001   15.370000      10.0000    195.0840
  477   3 Pt  78      -2.740000   14.540001   15.290000      10.0000    195.0840
  478   3 Pt  78       0.070000   14.570000   15.160000      10.0000    195.0840
  479   3 Pt  78       2.860000   14.460001   15.270000      10.0000    195.0840
  480   3 Pt  78       5.610001   14.610001   15.090000      10.0000    195.0840
  481   3 Pt  78       1.680000    2.330000   15.180000      10.0000    195.0840
  482   3 Pt  78       4.330000    2.380000   15.180000      10.0000    195.0840
  483   3 Pt  78       7.020000    2.560000   15.430000      10.0000    195.0840
  484   3 Pt  78      10.020000    2.320000   15.170000      10.0000    195.0840
  485   3 Pt  78      12.840000    2.440000   15.150000      10.0000    195.0840
  486   3 Pt  78      -1.280000    2.330000   15.210000      10.0000    195.0840
  487   3 Pt  78       2.880000    4.790000   15.220000      10.0000    195.0840
  488   3 Pt  78       5.670000    4.890000   15.340000      10.0000    195.0840
  489   3 Pt  78       8.460000    4.740000   15.200000      10.0000    195.0840
  490   3 Pt  78      11.280001    4.730000   15.240000      10.0000    195.0840
  491   3 Pt  78      -2.770000    4.830000   15.420000      10.0000    195.0840
  492   3 Pt  78      -0.010000    4.870000   15.320000      10.0000    195.0840
  493   3 Pt  78       4.120000    7.180000   15.270000      10.0000    195.0840
  494   3 Pt  78       7.130001    7.350000   15.330000      10.0000    195.0840
  495   3 Pt  78       9.980000    7.310000   15.170000      10.0000    195.0840
  496   3 Pt  78      -4.260000    7.300000   15.270000      10.0000    195.0840
  497   3 Pt  78      -1.300000    7.240000   15.330000      10.0000    195.0840
  498   3 Pt  78       1.410000    7.320001   15.360000      10.0000    195.0840
  499   3 Pt  78       5.710001    9.800000   15.370000      10.0000    195.0840
  500   3 Pt  78       8.510000    9.850000   15.230000      10.0000    195.0840
  501   3 Pt  78      -5.570001    9.830000   15.260000      10.0000    195.0840
  502   3 Pt  78      -2.740000    9.600000   15.360000      10.0000    195.0840
  503   3 Pt  78       0.110000    9.770000   15.230000      10.0000    195.0840
  504   3 Pt  78       2.960000    9.670001   15.290000      10.0000    195.0840
  505   3 Pt  78       7.160000   12.210001   15.280000      10.0000    195.0840
[...]
 -                                                                             -
 -                                DBCSR STATISTICS                             -
 -                                                                             -
 -------------------------------------------------------------------------------
 COUNTER                                    TOTAL       BLAS       SMM       ACC
 flops     5 x     5 x   116           5260634800       0.0%    100.0%      0.0%
 flops    13 x     5 x   116           6706995880       0.0%    100.0%      0.0%
 flops     5 x    13 x   116           6710539680       0.0%    100.0%      0.0%
 flops    13 x    13 x   116           8067673328       0.0%    100.0%      0.0%
 flops     5 x     5 x    96           8707257600       0.0%    100.0%      0.0%
 flops    13 x     5 x    96          11101234560       0.0%    100.0%      0.0%
 flops     5 x    13 x    96          11107100160       0.0%    100.0%      0.0%
 flops    13 x    20 x   116          11518767520       0.0%    100.0%      0.0%
 flops    20 x    13 x   116          11521602560       0.0%    100.0%      0.0%
 flops     5 x    20 x   116          12329152800       0.0%    100.0%      0.0%
 flops    20 x     5 x   116          12347689600       0.0%    100.0%      0.0%
 flops    13 x    13 x    96          13353390336       0.0%    100.0%      0.0%
 flops    13 x    20 x    96          19065546240       0.0%    100.0%      0.0%
 flops    20 x    13 x    96          19070238720       0.0%    100.0%      0.0%
 flops     5 x    20 x    96          20406873600       0.0%    100.0%      0.0%
 flops    20 x     5 x    96          20437555200       0.0%    100.0%      0.0%
 flops     5 x     5 x   128          75462899200       0.0%    100.0%      0.0%
 flops    13 x     5 x   128          96210699520       0.0%    100.0%      0.0%
 flops     5 x    13 x   128          96261534720       0.0%    100.0%      0.0%
 flops    20 x    20 x   116         102218457600       0.0%    100.0%      0.0%
 flops    13 x    13 x   128         115729382912       0.0%    100.0%      0.0%
 flops    13 x    20 x   128         165234734080       0.0%    100.0%      0.0%
 flops    20 x    13 x   128         165275402240       0.0%    100.0%      0.0%
 flops    20 x    20 x    96         169189171200       0.0%    100.0%      0.0%
 flops     5 x    20 x   128         176859571200       0.0%    100.0%      0.0%
 flops    20 x     5 x   128         177125478400       0.0%    100.0%      0.0%
 flops    20 x    20 x   128        1466306150400       0.0%    100.0%      0.0%
 flops inhomo. stacks                           0       0.0%      0.0%      0.0%
 flops total                         3.003586E+12       0.0%    100.0%      0.0%
 flops max/rank                     27.704360E+09       0.0%    100.0%      0.0%
 matmuls inhomo. stacks                         0       0.0%      0.0%      0.0%
 matmuls total                           72794352       0.0%    100.0%      0.0%
 number of processed stacks                864048       0.0%    100.0%      0.0%
 average stack size                                     0.0      84.2       0.0
 marketing flops                     6.229022E+12
 -------------------------------------------------------------------------------
 # multiplications                             47
 max memory usage/rank               1.627791E+09
 # max total images/rank                        2
 # max 3D layers                                1
 # MPI messages exchanged                  174464
 MPI messages size (bytes):
  total size                       107.237614E+09
  min size                         314.880000E+03
  max size                         843.776000E+03
  average size                     614.669000E+03
 MPI breakdown and total messages size (bytes):
             size <=      128                   0                        0
       128 < size <=     8192                   0                        0
      8192 < size <=    32768                   0                        0
     32768 < size <=   131072                   0                        0
    131072 < size <=  4194304              174464             107237612416
   4194304 < size <= 16777216                   0                        0
  16777216 < size                               0                        0
 -------------------------------------------------------------------------------

 *** WARNING in dbcsr_mm.F:290 :: Using a non-square number of MPI ranks ***
 *** might lead to poor performance. Used ranks: 128 Suggested: 121 256  ***

 -------------------------------------------------------------------------------
 -                                                                             -
 -                      DBCSR MESSAGE PASSING PERFORMANCE                      -
 -                                                                             -
 -------------------------------------------------------------------------------
 ROUTINE             CALLS      AVE VOLUME [Bytes]
 MP_Bcast               28                     12.
 MP_Allreduce          403                     11.
 MP_Alltoall          1328                 568076.
 MP_ISend             3008                 292036.
 MP_IRecv             3008                 285487.
 -------------------------------------------------------------------------------

 -------------------------------------------------------------------------------
 -                                                                             -
 -                                DBM STATISTICS                               -
 -                                                                             -
 -------------------------------------------------------------------------------
    M  x    N  x    K                                          COUNT     PERCENT
 -------------------------------------------------------------------------------

 -------------------------------------------------------------------------------
 -                                                                             -
 -                                GRID STATISTICS                              -
 -                                                                             -
 -------------------------------------------------------------------------------
 LP    KERNEL             BACKEND                              COUNT     PERCENT
 4     collocate general  REF                               18984287      22.47%
 4     integrate general  REF                               18853955      22.32%
 3     collocate general  REF                               12858683      15.22%
 3     integrate general  REF                               12803505      15.16%
 2     collocate general  REF                               10265317      12.15%
 2     integrate general  REF                               10046906      11.89%
 5     integrate general  REF                                 403921       0.48%
 0     collocate general  REF                                 130560       0.15%
 0     integrate general  REF                                  65280       0.08%
 1     integrate general  REF                                  65280       0.08%
 -------------------------------------------------------------------------------

 MEMORY| Estimated peak process memory [MiB]                                1805

 -------------------------------------------------------------------------------
 ----                             MULTIGRID INFO                            ----
 -------------------------------------------------------------------------------
 count for grid        1:        1094050          cutoff [a.u.]          200.00
 count for grid        2:        1088480          cutoff [a.u.]           66.67
 count for grid        3:         710989          cutoff [a.u.]           22.22
 count for grid        4:         547727          cutoff [a.u.]            7.41
 total gridlevel count  :        3441246

 -------------------------------------------------------------------------------
 -                                                                             -
 -                         MESSAGE PASSING PERFORMANCE                         -
 -                                                                             -
 -------------------------------------------------------------------------------

 ROUTINE             CALLS      AVE VOLUME [Bytes]
 MP_Group                4
 MP_Bcast              244                2336769.
 MP_Allreduce         3611                  29726.
 MP_Sync                98
 MP_Alltoall          2842               15937232.
 MP_SendRecv           508                   5784.
 MP_ISendRecv        23876                  61740.
 MP_Wait             42206
 MP_comm_split          47
 MP_ISend            17276                 256288.
 MP_IRecv            17276                 256288.
 MP_Recv               183                1682944.
 MP_Write_All            3                1797408.
 -------------------------------------------------------------------------------


 -------------------------------------------------------------------------------
 -                                                                             -
 -                           R E F E R E N C E S                               -
 -                                                                             -
 -------------------------------------------------------------------------------
 
 CP2K version 2022.1, the CP2K developers group (2022).
 CP2K is freely available from https://www.cp2k.org/ .

 Kuehne,Thomas D.; Iannuzzi,Marcella; Del Ben,Mauro;
 Rybkin,Vladimir V.; Seewald,Patrick; Stein,Frederick; Laino,Teodoro;
 Khaliullin,Rustam Z.; Schuett,Ole; Schiffmann,Florian; Golze,Dorothea;
 Wilhelm,Jan; Chulkov,Sergey; Bani-Hashemian,Mohammad Hossein;
 Weber,Valery; Borstnik,Urban; Taillefumier,Mathieu;
 Jakobovits,Alice Shoshana; Lazzaro,Alfio; Pabst,Hans; Mueller,Tiziano;
 Schade,Robert; Guidon,Manuel; Andermatt,Samuel; Holmberg,Nico;
 Schenter,Gregory K.; Hehn,Anna; Bussy,Augustin; Belleflamme,Fabian;
 Tabacchi,Gloria; Gloess,Andreas; Lass,Michael; Bethune,Iain;
 Mundy,Christopher J.; Plessl,Christian; Watkins,Matt;
 VandeVondele,Joost; Krack,Matthias; Hutter,Juerg. 
 The Journal of Chemical Physics, 152 (19), (2020). 
 CP2K: An electronic structure and molecular dynamics software package -
 Quickstep: Efficient and accurate electronic structure calculations.
 https://doi.org/10.1063/5.0007045

 Goerigk, Lars; Hansen, Andreas; Bauer, Christoph; Ehrlich, Stephan;
 Najibi, Asim; Grimme, Stefan. , 19 (48), (2017). 
 A look at the density functional theory zoo with the advanced GMTKN55 database
 for general main group thermochemistry, kinetics and noncovalent interactions.
 https://doi.org/10.1039/C7CP04913G

 Bani-Hashemian, MH; Bruck, S; Luisier, M; VandeVondele, J. 
 JOURNAL OF CHEMICAL PHYSICS, 144 (4), 044113 (2016). 
 A generalized Poisson solver for first-principles device simulations.
 https://doi.org/10.1063/1.4940796

 Schuett, Ole; Messmer, Peter; Hutter, Juerg; VandeVondele, Joost. 
 Electronic Structure Calculations on Graphics Processing Units, John
 Wiley & Sons, Ltd, 173-190 (2016). 
 GPU-Accelerated Sparse Matrix-Matrix Multiplication for
 Linear Scaling Density Functional Theory.
 https://doi.org/10.1002/9781118670712.ch8

 Heinecke, A; Henry, G; Hutchinson, M; Pabst, H. 
 Proceedings of Intl. Supercomputing Conference, 981-991 (2016). 
 LIBXSMM: Accelerating Small Matrix Multiplications
 by Runtime Code Generation.
 https://doi.org/10.1109/SC.2016.83

 Borstnik, U; VandeVondele, J; Weber, V; Hutter, J. 
 PARALLEL COMPUTING, 40 (5-6), 47-58 (2014). 
 Sparse matrix multiplication: The distributed block-compressed sparse
 row library.
 https://doi.org/10.1016/j.parco.2014.03.012

 Hutter, J; Iannuzzi, M; Schiffmann, F; VandeVondele, J. 
 WIREs Comput Mol Sci., 4 (1), 15-25 (2014). 
 CP2K: atomistic simulations of condensed matter systems.
 https://doi.org/10.1002/wcms.1159

 Marek, A; Blum, V; Johanni, R; Havu, V; Lang, B; Auckenthaler, T;
 Heinecke, A; Bungartz, H; Lederer, H. 
 Journal of Physics: Condensed Matter, 26 (21), (2014). 
 The ELPA library: scalable parallel eigenvalue solutions for
 electronic structure
 theory and computational science.
 https://doi.org/10.1088/0953-8984/26/21/213201

 Grimme, S; Ehrlich, S; Goerigk, L. 
 JOURNAL OF COMPUTATIONAL CHEMISTRY, 32, 1456 (2011). 
 Effect of the damping function in dispersion corrected density functional theory.
 https://doi.org/10.1002/jcc.21759

 Grimme, S; Antony, J; Ehrlich, S; Krieg, H. 
 JOURNAL OF CHEMICAL PHYSICS, 132 (15), 154104 (2010). 
 A consistent and accurate ab initio parametrization of density
 functional dispersion correction (DFT-D) for the 94 elements H-Pu.
 https://doi.org/10.1063/1.3382344

 VandeVondele, J; Hutter, J. 
 JOURNAL OF CHEMICAL PHYSICS, 127 (11), 114105 (2007). 
 Gaussian basis sets for accurate calculations on molecular systems in
 gas and condensed phases.
 https://doi.org/10.1063/1.2770708

 Krack, M. 
 THEORETICAL CHEMISTRY ACCOUNTS, 114 (1-3), 145-152 (2005). 
 Pseudopotentials for H to Kr optimized for gradient-corrected
 exchange-correlation functionals.
 https://doi.org/10.1007/s00214-005-0655-y

 VandeVondele, J; Krack, M; Mohamed, F; Parrinello, M; Chassaing, T;
 Hutter, J. COMPUTER PHYSICS COMMUNICATIONS, 167 (2), 103-128 (2005). 
 QUICKSTEP: Fast and accurate density functional calculations using a
 mixed Gaussian and plane waves approach.
 https://doi.org/10.1016/j.cpc.2004.12.014

 Frigo, M; Johnson, SG. 
 PROCEEDINGS OF THE IEEE, 93 (2), 216-231 (2005). 
 The design and implementation of FFTW3.
 https://doi.org/10.1109/JPROC.2004.840301

 Hartwigsen, C; Goedecker, S; Hutter, J. 
 PHYSICAL REVIEW B, 58 (7), 3641-3662 (1998). 
 Relativistic separable dual-space Gaussian pseudopotentials from H to Rn.
 https://doi.org/10.1103/PhysRevB.58.3641

 Lippert, G; Hutter, J; Parrinello, M. 
 MOLECULAR PHYSICS, 92 (3), 477-487 (1997). 
 A hybrid Gaussian and plane wave density functional scheme.
 https://doi.org/10.1080/002689797170220

 Perdew, JP; Burke, K; Ernzerhof, M. 
 PHYSICAL REVIEW LETTERS, 77 (18), 3865-3868 (1996). 
 Generalized gradient approximation made simple.
 https://doi.org/10.1103/PhysRevLett.77.3865

 Goedecker, S; Teter, M; Hutter, J. 
 PHYSICAL REVIEW B, 54 (3), 1703-1710 (1996). 
 Separable dual-space Gaussian pseudopotentials.
 https://doi.org/10.1103/PhysRevB.54.1703


 -------------------------------------------------------------------------------
 -                                                                             -
 -                                T I M I N G                                  -
 -                                                                             -
 -------------------------------------------------------------------------------
 SUBROUTINE                       CALLS  ASD         SELF TIME        TOTAL TIME
                                MAXIMUM       AVERAGE  MAXIMUM  AVERAGE  MAXIMUM
 CP2K                                 1  1.0    0.125    0.204  325.077  325.079
 qs_forces                            1  2.0    0.002    0.002  324.501  324.502
 qs_energies                          1  3.0    0.000    0.000  318.414  318.419
 scf_env_do_scf                       1  4.0    0.000    0.001  310.257  310.403
 scf_env_do_scf_inner_loop           46  5.0    0.003    0.007  310.257  310.402
 rebuild_ks_matrix                   47  6.9    0.000    0.000  167.823  167.855
 qs_ks_build_kohn_sham_matrix        47  7.9    0.007    0.008  167.822  167.855
 qs_ks_update_qs_env                 46  6.0    0.000    0.000  163.863  163.895
 pw_transfer                       2448 12.2    0.178    0.238  106.365  108.474
 fft_wrap_pw1pw2                   2448 13.2    0.024    0.032  106.186  108.262
 fft_wrap_pw1pw2_200               2166 14.4    7.199    8.511  104.741  106.767
 pw_poisson_solve                    47  8.9    0.004    0.011   91.448   91.480
 qs_scf_new_mos                      46  6.0    0.002    0.008   88.579   88.669
 fft3d_ps                          2448 15.2   30.729   34.149   85.349   88.654
 implicit_poisson_solver_mixed_      47  9.9    1.936    2.350   86.597   86.676
 eigensolver                         46  7.0    0.004    0.005   83.549   83.806
 derive_fft                         282 12.1    0.018    0.021   60.975   61.116
 cp_fm_diag_elpa                     47  8.0    0.001    0.001   58.520   58.671
 cp_fm_redistribute_end              47  9.0    7.666   57.958    7.765   58.013
 cp_fm_diag_elpa_base                47  9.0   49.478   56.653   49.958   57.234
 mp_alltoall_z22v                  2448 17.2   45.651   56.228   45.651   56.228
 apply_P_operator                   235 11.1    1.251    1.391   52.155   52.296
 qs_rho_update_rho_low               47  6.0    0.000    0.000   50.791   50.803
 calculate_rho_elec                  47  7.0    0.091    0.112   50.791   50.803
 sum_up_and_integrate                47  8.9    0.255    0.308   50.336   50.380
 integrate_v_rspace                  47  9.9    0.002    0.003   50.081   50.203
 grid_collocate_task_list            47  8.0   33.629   39.541   33.629   39.541
 grid_integrate_task_list            47 10.9   31.176   35.929   31.176   35.929
 x_to_yz                           1411 16.4    5.976    7.737   34.659   35.905
 cp_fm_triangular_multiply          138  8.0   26.223   26.525   26.223   26.525
 yz_to_x                            755 16.4    2.061    2.379   18.846   25.763
 rs_pw_transfer                     380 10.4    0.005    0.005   21.980   25.311
 qs_vxc_create                       47  8.9    0.001    0.002   23.341   23.628
 xc_vxc_pw_create                    47  9.9    0.400    0.492   23.340   23.627
 density_rs2pw                       47  8.0    0.003    0.004   16.013   19.504
 xc_pw_derive                       282 11.9    0.004    0.005   16.402   18.161
 apply_poisson_operator_fft          47 10.9    0.001    0.001   15.221   15.482
 apply_inv_laplace_operator_fft     143 11.6    0.359    0.397   13.810   14.307
 potential_pw2rs                     47 10.9    0.014    0.015   13.665   13.770
 mp_waitany                       17276 12.4    8.988   12.511    8.988   12.511
 xc_pw_divergence                    47 10.9    0.002    0.003   11.148   12.466
 rs_pw_transfer_RS2PW_200            49  9.9    3.214    3.564    8.997   12.330
 xc_rho_set_and_dset_create          47 10.9    0.233    0.271   11.332   12.121
 ps_implicit_compute_error_fft       94 10.9    0.591    0.720   10.167   10.906
 ps_implicit_compute_veps            47 10.9    0.272    0.322   10.346   10.512
 pw_scatter_p                      1552 15.4    8.675   10.135    8.675   10.135
 mp_alltoall_d11v                   665 10.2    6.693    9.520    6.693    9.520
 rs_gather_matrices                  47 10.9    0.057    0.070    5.226    8.039
 rs_pw_transfer_PW2RS_200            49 12.8    3.703    3.888    7.818    8.033
 gspace_mixing                       45  6.0    0.086    0.105    7.857    7.857
 pw_derive                         1128 13.1    7.180    7.767    7.180    7.767
 -------------------------------------------------------------------------------

 The number of warnings for this run is : 1
 
 -------------------------------------------------------------------------------
  **** **** ******  **  PROGRAM ENDED AT                 2023-12-03 08:46:44.856
 ***** ** ***  *** **   PROGRAM RAN ON                                     cu001
 **    ****   ******    PROGRAM RAN BY                                     jxzhu
 ***** **    ** ** **   PROGRAM PROCESS ID                                 14661
  **** **  *******  **  PROGRAM STOPPED IN /public/home/jxzhu/tmp_calc/03c118534
                                           f7681bef3cd14182c58e2daf68a533d/calc/
                                           003100.000/search_hi.000000
