 DBCSR| CPU Multiplication driver                                           XSMM
 DBCSR| Multrec recursion limit                                              512
 DBCSR| Multiplication stack size                                           1000
 DBCSR| Maximum elements for images                                    UNLIMITED
 DBCSR| Multiplicative factor virtual images                                   1
 DBCSR| Use multiplication densification                                       T
 DBCSR| Multiplication size stacks                                             3
 DBCSR| Use memory pool for CPU allocation                                     F
 DBCSR| Number of 3D layers                                               SINGLE
 DBCSR| Use MPI memory allocation                                              F
 DBCSR| Use RMA algorithm                                                      F
 DBCSR| Use Communication thread                                               T
 DBCSR| Communication thread load                                             87
 DBCSR| MPI: My node id                                                        0
 DBCSR| MPI: Number of nodes                                                  64
 DBCSR| OMP: Current number of threads                                         1
 DBCSR| OMP: Max number of threads                                             1
 DBCSR| Split modifier for TAS multiplication algorithm                  1.0E+00


  **** **** ******  **  PROGRAM STARTED AT               2023-11-26 20:29:24.312
 ***** ** ***  *** **   PROGRAM STARTED ON                                 cu054
 **    ****   ******    PROGRAM STARTED BY                                 jxzhu
 ***** **    ** ** **   PROGRAM PROCESS ID                                 12206
  **** **  *******  **  PROGRAM STARTED IN /public/home/jxzhu/tmp_calc/af2075565
                                           805657d94fa4669dad6f4b174b0a4fb/calc/
                                           002200.000/pbc

 CP2K| version string:                                       CP2K version 2022.1
 CP2K| source code revision number:                                  git:2caeb6f
 CP2K| cp2kflags: omp libint fftw3 libxc elpa parallel mpi3 scalapack cosma xsmm
 CP2K|             plumed2 spglib mkl sirius libvori libbqb
 CP2K| is freely available from                            https://www.cp2k.org/
 CP2K| Program compiled at                           Mon Jul 3 17:37:06 CST 2023
 CP2K| Program compiled on                                                 mu003
 CP2K| Program compiled for                                                local
 CP2K| Data directory path                             /public/home/jxzhu/basis/
 CP2K| Input file name                                                 input.inp
 
 GLOBAL| Force Environment number                                              1
 GLOBAL| Basis set file name                                        BASIS_MOLOPT
 GLOBAL| Potential file name                                      GTH_POTENTIALS
 GLOBAL| MM Potential file name                                     MM_POTENTIAL
 GLOBAL| Coordinate file name                                          coord.xyz
 GLOBAL| Method name                                                        CP2K
 GLOBAL| Project name                                                       cp2k
 GLOBAL| Run type                                                   ENERGY_FORCE
 GLOBAL| FFT library                                                       FFTW3
 GLOBAL| Diagonalization library                                            ELPA
 GLOBAL| Minimum number of eigenvectors for ELPA usage                        16
 GLOBAL| Orthonormality check for eigenvectors                          DISABLED
 GLOBAL| Matrix multiplication library                                     COSMA
 GLOBAL| All-to-all communication in single precision                          F
 GLOBAL| FFTs using library dependent lengths                                  F
 GLOBAL| Grid backend                                                       AUTO
 GLOBAL| Global print level                                               MEDIUM
 GLOBAL| MPI I/O enabled                                                       T
 GLOBAL| Total number of message passing processes                            64
 GLOBAL| Number of threads for this process                                    1
 GLOBAL| This output is from process                                           0
 GLOBAL| Stack size for threads created by OpenMP (OMP_STACKSIZE)        default
 GLOBAL| CPU model name                 Intel(R) Xeon(R) Gold 6338 CPU @ 2.00GHz
 GLOBAL| CPUID                                                              1003

 MEMORY| system memory details [Kb]
 MEMORY|                        rank 0           min           max       average
 MEMORY| MemTotal            263619172     263619172     263619172     263619172
 MEMORY| MemFree             210936436     210936436     210938916     210936697
 MEMORY| Buffers                  3320          3320          3320          3320
 MEMORY| Cached                3845036       3845036       3845036       3845036
 MEMORY| Slab                  1758928       1758928       1758928       1758928
 MEMORY| SReclaimable           241244        241244        241244        241244
 MEMORY| MemLikelyFree       215026036     215026036     215028516     215026297


 *** Fundamental physical constants (SI units) ***

 *** Literature: B. J. Mohr and B. N. Taylor,
 ***             CODATA recommended values of the fundamental physical
 ***             constants: 2006, Web Version 5.1
 ***             http://physics.nist.gov/constants

 Speed of light in vacuum [m/s]                             2.99792458000000E+08
 Magnetic constant or permeability of vacuum [N/A**2]       1.25663706143592E-06
 Electric constant or permittivity of vacuum [F/m]          8.85418781762039E-12
 Planck constant (h) [J*s]                                  6.62606896000000E-34
 Planck constant (h-bar) [J*s]                              1.05457162825177E-34
 Elementary charge [C]                                      1.60217648700000E-19
 Electron mass [kg]                                         9.10938215000000E-31
 Electron g factor [ ]                                     -2.00231930436220E+00
 Proton mass [kg]                                           1.67262163700000E-27
 Fine-structure constant                                    7.29735253760000E-03
 Rydberg constant [1/m]                                     1.09737315685270E+07
 Avogadro constant [1/mol]                                  6.02214179000000E+23
 Boltzmann constant [J/K]                                   1.38065040000000E-23
 Atomic mass unit [kg]                                      1.66053878200000E-27
 Bohr radius [m]                                            5.29177208590000E-11

 *** Conversion factors ***

 [u] -> [a.u.]                                              1.82288848426455E+03
 [Angstrom] -> [Bohr] = [a.u.]                              1.88972613288564E+00
 [a.u.] = [Bohr] -> [Angstrom]                              5.29177208590000E-01
 [a.u.] -> [s]                                              2.41888432650478E-17
 [a.u.] -> [fs]                                             2.41888432650478E-02
 [a.u.] -> [J]                                              4.35974393937059E-18
 [a.u.] -> [N]                                              8.23872205491840E-08
 [a.u.] -> [K]                                              3.15774647902944E+05
 [a.u.] -> [kJ/mol]                                         2.62549961709828E+03
 [a.u.] -> [kcal/mol]                                       6.27509468713739E+02
 [a.u.] -> [Pa]                                             2.94210107994716E+13
 [a.u.] -> [bar]                                            2.94210107994716E+08
 [a.u.] -> [atm]                                            2.90362800883016E+08
 [a.u.] -> [eV]                                             2.72113838565563E+01
 [a.u.] -> [Hz]                                             6.57968392072181E+15
 [a.u.] -> [1/cm] (wave numbers)                            2.19474631370540E+05
 [a.u./Bohr**2] -> [1/cm]                                   5.14048714338585E+03
 

 CELL_TOP| Volume [angstrom^3]:                                     10221.806009
 CELL_TOP| Vector a [angstrom    16.869     0.000     0.000   |a| =    16.869000
 CELL_TOP| Vector b [angstrom    -8.434    14.609     0.000   |b| =    16.869015
 CELL_TOP| Vector c [angstrom     0.000     0.000    41.478   |c| =    41.478000
 CELL_TOP| Angle (b,c), alpha [degree]:                                90.000000
 CELL_TOP| Angle (a,c), beta  [degree]:                                90.000000
 CELL_TOP| Angle (a,b), gamma [degree]:                               119.999970
 CELL_TOP| Numerically orthorhombic:                                          NO
 
 GENERATE|  Preliminary Number of Bonds generated:                             0
 GENERATE|  Achieved consistency in connectivity generation.

 CELL| Volume [angstrom^3]:                                         10221.806009
 CELL| Vector a [angstrom]:      16.869     0.000     0.000   |a| =    16.869000
 CELL| Vector b [angstrom]:      -8.434    14.609     0.000   |b| =    16.869015
 CELL| Vector c [angstrom]:       0.000     0.000    41.478   |c| =    41.478000
 CELL| Angle (b,c), alpha [degree]:                                    90.000000
 CELL| Angle (a,c), beta  [degree]:                                    90.000000
 CELL| Angle (a,b), gamma [degree]:                                   119.999970
 CELL| Numerically orthorhombic:                                              NO

 CELL_REF| Volume [angstrom^3]:                                     10221.806009
 CELL_REF| Vector a [angstrom    16.869     0.000     0.000   |a| =    16.869000
 CELL_REF| Vector b [angstrom    -8.434    14.609     0.000   |b| =    16.869015
 CELL_REF| Vector c [angstrom     0.000     0.000    41.478   |c| =    41.478000
 CELL_REF| Angle (b,c), alpha [degree]:                                90.000000
 CELL_REF| Angle (a,c), beta  [degree]:                                90.000000
 CELL_REF| Angle (a,b), gamma [degree]:                               119.999970
 CELL_REF| Numerically orthorhombic:                                          NO

 *******************************************************************************
 *******************************************************************************
 **                                                                           **
 **     #####                         ##              ##                      **
 **    ##   ##            ##          ##              ##                      **
 **   ##     ##                       ##            ######                    **
 **   ##     ##  ##   ##  ##   #####  ##  ##   ####   ##    #####    #####    **
 **   ##     ##  ##   ##  ##  ##      ## ##   ##      ##   ##   ##  ##   ##   **
 **   ##  ## ##  ##   ##  ##  ##      ####     ###    ##   ######   ######    **
 **    ##  ###   ##   ##  ##  ##      ## ##      ##   ##   ##       ##        **
 **     #######   #####   ##   #####  ##  ##  ####    ##    #####   ##        **
 **           ##                                                    ##        **
 **                                                                           **
 **                                                ... make the atoms dance   **
 **                                                                           **
 **            Copyright (C) by CP2K developers group (2000-2022)             **
 **                      J. Chem. Phys. 152, 194103 (2020)                    **
 **                                                                           **
 *******************************************************************************

 DFT| Spin restricted Kohn-Sham (RKS) calculation                            RKS
 DFT| Multiplicity                                                             1
 DFT| Number of spin states                                                    1
 DFT| Charge                                                                   0
 DFT| Self-interaction correction (SIC)                                       NO
 DFT| Cutoffs: density                                              1.000000E-10
 DFT|          gradient                                             1.000000E-10
 DFT|          tau                                                  1.000000E-10
 DFT|          cutoff_smoothing_range                               0.000000E+00
 DFT| XC density smoothing                                                  NONE
 DFT| XC derivatives                                                          PW

 FUNCTIONAL| PBE:
 FUNCTIONAL| J.P.Perdew, K.Burke, M.Ernzerhof, Phys. Rev. Letter, vol. 77, n 18,
 FUNCTIONAL|  pp. 3865-3868, (1996){spin unpolarized}                           

 vdW POTENTIAL|                                                   Pair Potential
 vdW POTENTIAL|          DFT-D3 (Version 3.1)
 vdW POTENTIAL|          Potential Form: S. Grimme et al, JCP 132: 154104 (2010)
 vdW POTENTIAL|          Zero Damping
 vdW POTENTIAL|          Cutoff Radius [Bohr]:                             20.00
 vdW POTENTIAL|          s6 Scaling Factor:                               1.0000
 vdW POTENTIAL|          sr6 Scaling Factor:                              1.2170
 vdW POTENTIAL|          s8 Scaling Factor:                               0.7220
 vdW POTENTIAL|          Cutoff for CN calculation:                   0.1000E-05

 QS| Method:                                                                 GPW
 QS| Density plane wave grid type                        NON-SPHERICAL FULLSPACE
 QS| Number of grid levels:                                                    4
 QS| Density cutoff [a.u.]:                                                200.0
 QS| Multi grid cutoff [a.u.]: 1) grid level                               200.0
 QS|                           2) grid level                                66.7
 QS|                           3) grid level                                22.2
 QS|                           4) grid level                                 7.4
 QS| Grid level progression factor:                                          3.0
 QS| Relative density cutoff [a.u.]:                                        20.0
 QS| Interaction thresholds: eps_pgf_orb:                                3.2E-07
 QS|                         eps_filter_matrix:                          0.0E+00
 QS|                         eps_core_charge:                            1.0E-15
 QS|                         eps_rho_gspace:                             1.0E-13
 QS|                         eps_rho_rspace:                             1.0E-13
 QS|                         eps_gvg_rspace:                             3.2E-07
 QS|                         eps_ppl:                                    1.0E-02
 QS|                         eps_ppnl:                                   3.2E-09


 ATOMIC KIND INFORMATION

  1. Atomic kind: O                                     Number of atoms:     230

     Orbital Basis Set                                        DZVP-MOLOPT-SR-GTH

       Number of orbital shell sets:                                           1
       Number of orbital shells:                                               5
       Number of primitive Cartesian functions:                                5
       Number of Cartesian basis functions:                                   14
       Number of spherical basis functions:                                   13
       Norm type:                                                              2

       Normalised Cartesian orbitals:

                        Set   Shell   Orbital            Exponent    Coefficient

                          1       1    2s               10.389228       0.396646
                                                         3.849621       0.208811
                                                         1.388401      -0.301641
                                                         0.496955      -0.274061
                                                         0.162492      -0.033677

                          1       2    3s               10.389228       0.303673
                                                         3.849621       0.240943
                                                         1.388401      -0.313066
                                                         0.496955      -0.043055
                                                         0.162492       0.213991

                          1       3    3px              10.389228      -1.530415
                                                         3.849621      -1.371928
                                                         1.388401      -0.761951
                                                         0.496955      -0.253695
                                                         0.162492      -0.035541
                          1       3    3py              10.389228      -1.530415
                                                         3.849621      -1.371928
                                                         1.388401      -0.761951
                                                         0.496955      -0.253695
                                                         0.162492      -0.035541
                          1       3    3pz              10.389228      -1.530415
                                                         3.849621      -1.371928
                                                         1.388401      -0.761951
                                                         0.496955      -0.253695
                                                         0.162492      -0.035541

                          1       4    4px              10.389228      -0.565392
                                                         3.849621      -0.038231
                                                         1.388401      -0.382373
                                                         0.496955       0.179070
                                                         0.162492       0.122714
                          1       4    4py              10.389228      -0.565392
                                                         3.849621      -0.038231
                                                         1.388401      -0.382373
                                                         0.496955       0.179070
                                                         0.162492       0.122714
                          1       4    4pz              10.389228      -0.565392
                                                         3.849621      -0.038231
                                                         1.388401      -0.382373
                                                         0.496955       0.179070
                                                         0.162492       0.122714

                          1       5    4dx2             10.389228       1.867377
                                                         3.849621       0.670994
                                                         1.388401       1.353441
                                                         0.496955       0.273538
                                                         0.162492       0.006620
                          1       5    4dxy             10.389228       3.234392
                                                         3.849621       1.162195
                                                         1.388401       2.344229
                                                         0.496955       0.473781
                                                         0.162492       0.011466
                          1       5    4dxz             10.389228       3.234392
                                                         3.849621       1.162195
                                                         1.388401       2.344229
                                                         0.496955       0.473781
                                                         0.162492       0.011466
                          1       5    4dy2             10.389228       1.867377
                                                         3.849621       0.670994
                                                         1.388401       1.353441
                                                         0.496955       0.273538
                                                         0.162492       0.006620
                          1       5    4dyz             10.389228       3.234392
                                                         3.849621       1.162195
                                                         1.388401       2.344229
                                                         0.496955       0.473781
                                                         0.162492       0.011466
                          1       5    4dz2             10.389228       1.867377
                                                         3.849621       0.670994
                                                         1.388401       1.353441
                                                         0.496955       0.273538
                                                         0.162492       0.006620

       Atomic covalent radius [Angstrom]:                                  0.730

       Atomic van der Waals radius [Angstrom]:                             1.520

     GTH Potential information for                                    GTH-PBE-q6

       Description:                       Goedecker-Teter-Hutter pseudopotential
                                           Goedecker et al., PRB 54, 1703 (1996)
                                          Hartwigsen et al., PRB 58, 3641 (1998)
                                                      Krack, TCA 114, 145 (2005)

       Gaussian exponent of the core charge distribution:               8.360253
       Electronic configuration (s p d ...):                               2   4

       Parameters of the local part of the GTH pseudopotential:

                          rloc        C1          C2          C3          C4
                        0.244554  -16.667215    2.487311

       Parameters of the non-local part of the GTH pseudopotential:

                   l      r(l)      h(i,j,l)

                   0    0.220956   18.337458
                   1    0.211332

  2. Atomic kind: H                                     Number of atoms:     460

     Orbital Basis Set                                        DZVP-MOLOPT-SR-GTH

       Number of orbital shell sets:                                           1
       Number of orbital shells:                                               3
       Number of primitive Cartesian functions:                                5
       Number of Cartesian basis functions:                                    5
       Number of spherical basis functions:                                    5
       Norm type:                                                              2

       Normalised Cartesian orbitals:

                        Set   Shell   Orbital            Exponent    Coefficient

                          1       1    2s               10.068468      -0.133023
                                                         2.680223      -0.177618
                                                         0.791502      -0.258419
                                                         0.239116      -0.107525
                                                         0.082193      -0.014019

                          1       2    3s               10.068468       0.344673
                                                         2.680223       1.819821
                                                         0.791502      -0.999069
                                                         0.239116       0.017430
                                                         0.082193       0.082660

                          1       3    3px              10.068468       0.155326
                                                         2.680223       0.367157
                                                         0.791502       0.311480
                                                         0.239116       0.080105
                                                         0.082193       0.033440
                          1       3    3py              10.068468       0.155326
                                                         2.680223       0.367157
                                                         0.791502       0.311480
                                                         0.239116       0.080105
                                                         0.082193       0.033440
                          1       3    3pz              10.068468       0.155326
                                                         2.680223       0.367157
                                                         0.791502       0.311480
                                                         0.239116       0.080105
                                                         0.082193       0.033440

       Atomic covalent radius [Angstrom]:                                  0.320

       Atomic van der Waals radius [Angstrom]:                             1.090

     GTH Potential information for                                    GTH-PBE-q1

       Description:                       Goedecker-Teter-Hutter pseudopotential
                                           Goedecker et al., PRB 54, 1703 (1996)
                                          Hartwigsen et al., PRB 58, 3641 (1998)
                                                      Krack, TCA 114, 145 (2005)

       Gaussian exponent of the core charge distribution:              12.500000
       Electronic configuration (s p d ...):                                   1

       Parameters of the local part of the GTH pseudopotential:

                          rloc        C1          C2          C3          C4
                        0.200000   -4.178900    0.724463

  3. Atomic kind: Pt                                    Number of atoms:     216

     Orbital Basis Set                      DZVP-A5-Q10-323-MOL-T1-DERIVED_SET-1

       Number of orbital shell sets:                                           1
       Number of orbital shells:                                               6
       Number of primitive Cartesian functions:                                5
       Number of Cartesian basis functions:                                   23
       Number of spherical basis functions:                                   20
       Norm type:                                                              2

       Normalised Cartesian orbitals:

                        Set   Shell   Orbital            Exponent    Coefficient

                          1       1    2s                2.521825       0.177473
                                                         1.453920      -0.063399
                                                         0.614053      -0.407089
                                                         0.232656       0.262254
                                                         0.074788       0.047371

                          1       2    3s                2.521825      -0.049056
                                                         1.453920       0.044904
                                                         0.614053      -0.009756
                                                         0.232656      -0.144709
                                                         0.074788       0.144085

                          1       3    3px               2.521825      -0.317572
                                                         1.453920       0.534826
                                                         0.614053      -0.489458
                                                         0.232656       0.245631
                                                         0.074788       0.018221
                          1       3    3py               2.521825      -0.317572
                                                         1.453920       0.534826
                                                         0.614053      -0.489458
                                                         0.232656       0.245631
                                                         0.074788       0.018221
                          1       3    3pz               2.521825      -0.317572
                                                         1.453920       0.534826
                                                         0.614053      -0.489458
                                                         0.232656       0.245631
                                                         0.074788       0.018221

                          1       4    4dx2              2.521825       3.008522
                                                         1.453920      -1.224251
                                                         0.614053       0.225691
                                                         0.232656       0.125144
                                                         0.074788      -0.015348
                          1       4    4dxy              2.521825       5.210912
                                                         1.453920      -2.120465
                                                         0.614053       0.390909
                                                         0.232656       0.216756
                                                         0.074788      -0.026584
                          1       4    4dxz              2.521825       5.210912
                                                         1.453920      -2.120465
                                                         0.614053       0.390909
                                                         0.232656       0.216756
                                                         0.074788      -0.026584
                          1       4    4dy2              2.521825       3.008522
                                                         1.453920      -1.224251
                                                         0.614053       0.225691
                                                         0.232656       0.125144
                                                         0.074788      -0.015348
                          1       4    4dyz              2.521825       5.210912
                                                         1.453920      -2.120465
                                                         0.614053       0.390909
                                                         0.232656       0.216756
                                                         0.074788      -0.026584
                          1       4    4dz2              2.521825       3.008522
                                                         1.453920      -1.224251
                                                         0.614053       0.225691
                                                         0.232656       0.125144
                                                         0.074788      -0.015348

                          1       5    5dx2              2.521825       0.698026
                                                         1.453920      -1.511486
                                                         0.614053      -0.335394
                                                         0.232656      -0.025564
                                                         0.074788      -0.002699
                          1       5    5dxy              2.521825       1.209017
                                                         1.453920      -2.617970
                                                         0.614053      -0.580920
                                                         0.232656      -0.044277
                                                         0.074788      -0.004674
                          1       5    5dxz              2.521825       1.209017
                                                         1.453920      -2.617970
                                                         0.614053      -0.580920
                                                         0.232656      -0.044277
                                                         0.074788      -0.004674
                          1       5    5dy2              2.521825       0.698026
                                                         1.453920      -1.511486
                                                         0.614053      -0.335394
                                                         0.232656      -0.025564
                                                         0.074788      -0.002699
                          1       5    5dyz              2.521825       1.209017
                                                         1.453920      -2.617970
                                                         0.614053      -0.580920
                                                         0.232656      -0.044277
                                                         0.074788      -0.004674
                          1       5    5dz2              2.521825       0.698026
                                                         1.453920      -1.511486
                                                         0.614053      -0.335394
                                                         0.232656      -0.025564
                                                         0.074788      -0.002699

                          1       6    6dx2              2.521825       0.831079
                                                         1.453920      -0.709226
                                                         0.614053      -0.137351
                                                         0.232656       0.068642
                                                         0.074788       0.011745
                          1       6    6dxy              2.521825       1.439472
                                                         1.453920      -1.228415
                                                         0.614053      -0.237899
                                                         0.232656       0.118891
                                                         0.074788       0.020343
                          1       6    6dxz              2.521825       1.439472
                                                         1.453920      -1.228415
                                                         0.614053      -0.237899
                                                         0.232656       0.118891
                                                         0.074788       0.020343
                          1       6    6dy2              2.521825       0.831079
                                                         1.453920      -0.709226
                                                         0.614053      -0.137351
                                                         0.232656       0.068642
                                                         0.074788       0.011745
                          1       6    6dyz              2.521825       1.439472
                                                         1.453920      -1.228415
                                                         0.614053      -0.237899
                                                         0.232656       0.118891
                                                         0.074788       0.020343
                          1       6    6dz2              2.521825       0.831079
                                                         1.453920      -0.709226
                                                         0.614053      -0.137351
                                                         0.232656       0.068642
                                                         0.074788       0.011745

       Atomic covalent radius [Angstrom]:                                  1.300

       Atomic van der Waals radius [Angstrom]:                             1.750

     GTH Potential information for                                   GTH-PBE-q10

       Description:                       Goedecker-Teter-Hutter pseudopotential
                                           Goedecker et al., PRB 54, 1703 (1996)
                                          Hartwigsen et al., PRB 58, 3641 (1998)
                                                      Krack, TCA 114, 145 (2005)

       Gaussian exponent of the core charge distribution:               1.317676
       Electronic configuration (s p d ...):                           1   0   9

       Parameters of the local part of the GTH pseudopotential:

                          rloc        C1          C2          C3          C4
                        0.616000   11.313635

       Parameters of the non-local part of the GTH pseudopotential:

                   l      r(l)      h(i,j,l)

                   0    0.550904    4.733491   -1.784594
                                   -1.784594    2.303901
                   1    0.674138    2.534798   -1.778066
                                   -1.778066    2.103836
                   2    0.457392   -7.264011    2.558665
                                    2.558665   -2.901253


 MOLECULE KIND INFORMATION


 All atoms are their own molecule, skipping detailed information


 TOTAL NUMBERS AND MAXIMUM NUMBERS

  Total number of            - Atomic kinds:                                   3
                             - Atoms:                                        906
                             - Shell sets:                                   906
                             - Shells:                                      3826
                             - Primitive Cartesian functions:               4530
                             - Cartesian basis functions:                  10488
                             - Spherical basis functions:                   9610

  Maximum angular momentum of- Orbital basis functions:                        2
                             - Local part of the GTH pseudopotential:          2
                             - Non-local part of the GTH pseudopotential:      4


 MODULE QUICKSTEP:  ATOMIC COORDINATES IN angstrom

 Atom  Kind  Element       X           Y           Z          Z(eff)       Mass
    1   1 O    8       3.220000   -7.180000    9.970000       6.0000     15.9994
    2   2 H    1       2.770000   -6.400001    9.470000       1.0000      1.0079
    3   2 H    1       4.210001   -7.300000    9.720000       1.0000      1.0079
    4   1 O    8      11.130000    5.410000   15.970001       6.0000     15.9994
    5   2 H    1      11.920000    4.800000   15.740002       1.0000      1.0079
    6   2 H    1      10.700001    5.820000   15.190001       1.0000      1.0079
    7   1 O    8      -1.990000  -31.870001   14.960001       6.0000     15.9994
    8   2 H    1      -1.480000  -31.940002   14.120001       1.0000      1.0079
    9   2 H    1      -1.940000  -30.890003   15.020000       1.0000      1.0079
   10   1 O    8      13.990001    7.830000    8.970000       6.0000     15.9994
   11   2 H    1      13.710001    7.560000    8.040000       1.0000      1.0079
   12   2 H    1      14.890001    7.520000    9.040001       1.0000      1.0079
   13   1 O    8      16.340000  -32.099998   24.330002       6.0000     15.9994
   14   2 H    1      16.950001  -32.500004   24.970001       1.0000      1.0079
   15   2 H    1      16.020000  -32.930000   23.850002       1.0000      1.0079
   16   1 O    8      12.300000   27.470001   17.050001       6.0000     15.9994
   17   2 H    1      11.770000   27.760000   17.840000       1.0000      1.0079
   18   2 H    1      12.610001   26.560001   17.280001       1.0000      1.0079
   19   1 O    8     -12.580000    9.480001   29.820002       6.0000     15.9994
   20   2 H    1     -12.770000   10.180000   30.510002       1.0000      1.0079
   21   2 H    1     -11.850000    9.800000   29.250002       1.0000      1.0079
   22   1 O    8       6.120000   29.470001    8.730000       6.0000     15.9994
   23   2 H    1       6.260000   29.250002    9.710001       1.0000      1.0079
   24   2 H    1      13.640001   15.200001    8.680000       1.0000      1.0079
   25   1 O    8     -30.050001  -32.470001   13.660001       6.0000     15.9994
   26   2 H    1     -30.880001  -32.459999   14.290000       1.0000      1.0079
   27   2 H    1     -29.990002  -33.360001   13.370000       1.0000      1.0079
   28   1 O    8      28.670002   17.900002   22.390001       6.0000     15.9994
   29   2 H    1      29.590000   18.120001   22.660000       1.0000      1.0079
   30   2 H    1      28.670002   16.860001   22.490002       1.0000      1.0079
   31   1 O    8      13.880000   -4.380000   16.710001       6.0000     15.9994
   32   2 H    1      13.140000   -4.790000   16.300001       1.0000      1.0079
   33   2 H    1      14.070001   -3.660000   16.110001       1.0000      1.0079
   34   1 O    8     -11.400002  -35.230003   13.510000       6.0000     15.9994
   35   2 H    1     -12.280001  -35.570000   13.210001       1.0000      1.0079
   36   2 H    1     -10.970000  -34.630001   12.830001       1.0000      1.0079
   37   1 O    8     -19.850002  -13.720001   29.940002       6.0000     15.9994
   38   2 H    1     -19.660000  -14.380001   29.270000       1.0000      1.0079
   39   2 H    1     -20.370003  -13.040000   29.410002       1.0000      1.0079
   40   1 O    8      28.600002   15.780001   11.370001       6.0000     15.9994
   41   2 H    1      29.270000   16.370001   11.820001       1.0000      1.0079
   42   2 H    1      28.790001   15.920001   10.420000       1.0000      1.0079
   43   1 O    8      -2.370000  -10.920000   32.700001       6.0000     15.9994
   44   2 H    1      -1.850000  -11.050000   33.550003       1.0000      1.0079
   45   2 H    1      -1.790000  -11.220001   31.970003       1.0000      1.0079
   46   1 O    8       4.020000   25.090000   30.850000       6.0000     15.9994
   47   2 H    1       3.470000   24.320002   30.960003       1.0000      1.0079
   48   2 H    1       4.630000   25.320000   31.600000       1.0000      1.0079
   49   1 O    8     -16.190001   24.430000   28.600002       6.0000     15.9994
   50   2 H    1     -15.980000   25.310001   29.170000       1.0000      1.0079
   51   2 H    1     -15.520000   23.710001   28.860001       1.0000      1.0079
   52   1 O    8     -16.550001   12.490001   11.550001       6.0000     15.9994
   53   2 H    1     -15.970001   12.230001   12.400000       1.0000      1.0079
   54   2 H    1     -17.200001   11.730001   11.490001       1.0000      1.0079
   55   1 O    8       6.780000  -15.280001   25.750000       6.0000     15.9994
   56   2 H    1       5.830000  -15.140000   25.400002       1.0000      1.0079
   57   2 H    1       7.120000  -16.080000   25.260000       1.0000      1.0079
   58   1 O    8      21.150000   -1.770000   11.290001       6.0000     15.9994
   59   2 H    1      20.410002   -1.230000   11.070000       1.0000      1.0079
   60   2 H    1      20.950001   -2.190000   12.200001       1.0000      1.0079
   61   1 O    8     -17.490002   46.950001   30.980000       6.0000     15.9994
   62   2 H    1     -17.260000   47.770004   30.440002       1.0000      1.0079
   63   2 H    1      -0.430000   46.090004   30.440002       1.0000      1.0079
   64   1 O    8      35.520004  -24.930000   12.460001       6.0000     15.9994
   65   2 H    1      35.460003  -25.540001   11.690001       1.0000      1.0079
   66   2 H    1      53.400002  -24.750002   12.500000       1.0000      1.0079
   67   1 O    8      -6.780000   -3.580000   24.810001       6.0000     15.9994
   68   2 H    1     -15.690001   11.740000   24.170000       1.0000      1.0079
   69   2 H    1      -6.600000   -4.420000   24.290001       1.0000      1.0079
   70   1 O    8      -4.780000   21.740000   25.830002       6.0000     15.9994
   71   2 H    1      -4.000000   22.330000   25.710001       1.0000      1.0079
   72   2 H    1      -4.980001   21.910002   26.780003       1.0000      1.0079
   73   1 O    8     -28.540001   -1.370000   32.570004       6.0000     15.9994
   74   2 H    1     -28.440001   -1.060000   33.560001       1.0000      1.0079
   75   2 H    1     -27.800003   -1.880000   32.270004       1.0000      1.0079
   76   1 O    8     -12.040001   -2.340000   17.960001       6.0000     15.9994
   77   2 H    1     -11.680001   -2.180000   17.050001       1.0000      1.0079
   78   2 H    1     -12.980001   -2.010000   17.889999       1.0000      1.0079
   79   1 O    8      -1.150000  -38.730003   13.970001       6.0000     15.9994
   80   2 H    1      -1.110000  -38.890003   14.910001       1.0000      1.0079
   81   2 H    1      -1.100000  -39.630005   13.440001       1.0000      1.0079
   82   1 O    8      15.790001  -12.810000   16.150002       6.0000     15.9994
   83   2 H    1      15.920001  -13.560000   16.840002       1.0000      1.0079
   84   2 H    1      15.910001  -13.210001   15.270000       1.0000      1.0079
   85   1 O    8      -0.710000   17.050001    8.910000       6.0000     15.9994
   86   2 H    1      -1.330000   16.280001    8.700001       1.0000      1.0079
   87   2 H    1      -0.170000   17.050001    8.090000       1.0000      1.0079
   88   1 O    8       5.760000   -9.250001   13.030001       6.0000     15.9994
   89   2 H    1     -11.310000   -9.790000   13.800001       1.0000      1.0079
   90   2 H    1       4.890000   -8.810000   12.950001       1.0000      1.0079
   91   1 O    8      -0.740000    1.400000    8.890000       6.0000     15.9994
   92   2 H    1      -0.290000    0.970000    8.150001       1.0000      1.0079
   93   2 H    1      -1.680000    1.610000    8.620001       1.0000      1.0079
   94   1 O    8      21.680002   42.520004   21.320002       6.0000     15.9994
   95   2 H    1      22.530001   42.410004   20.750000       1.0000      1.0079
   96   2 H    1      21.850002   43.450005   21.620003       1.0000      1.0079
   97   1 O    8     -23.250000  -15.700001    9.670001       6.0000     15.9994
   98   2 H    1     -23.160002  -14.730001    9.260000       1.0000      1.0079
   99   2 H    1     -24.209999  -15.890001    9.710001       1.0000      1.0079
  100   1 O    8       0.370000    8.840000   12.770000       6.0000     15.9994
  101   2 H    1       1.420000    8.980000   12.900001       1.0000      1.0079
  102   2 H    1       0.280000    7.860000   12.730000       1.0000      1.0079
  103   1 O    8      30.190001    2.150000    9.180000       6.0000     15.9994
  104   2 H    1      30.570002    2.490000   10.020000       1.0000      1.0079
  105   2 H    1      12.480001    2.720000    9.050000       1.0000      1.0079
  106   1 O    8      -4.820000   11.750001    7.990000       6.0000     15.9994
  107   2 H    1      -5.600000   11.210001    8.220000       1.0000      1.0079
  108   2 H    1      -5.080000   12.610001    8.390000       1.0000      1.0079
  109   1 O    8      26.650002   18.030001   15.010000       6.0000     15.9994
  110   2 H    1      26.670000   16.960001   15.110001       1.0000      1.0079
  111   2 H    1      26.730001   18.200001   14.070001       1.0000      1.0079
  112   1 O    8     -35.240002    6.130000   17.760002       6.0000     15.9994
  113   2 H    1     -34.280003    6.320000   17.889999       1.0000      1.0079
  114   2 H    1     -35.480000    7.020000   17.330000       1.0000      1.0079
  115   1 O    8      15.750000   20.960003    9.480001       6.0000     15.9994
  116   2 H    1      16.650002   20.590000    9.240000       1.0000      1.0079
  117   2 H    1      15.660001   21.110001   10.510000       1.0000      1.0079
  118   1 O    8     -19.220001   15.990001   22.260000       6.0000     15.9994
  119   2 H    1     -19.330002   16.860001   21.890001       1.0000      1.0079
  120   2 H    1     -19.930002   15.420000   21.830002       1.0000      1.0079
  121   1 O    8       4.490000  -12.950001   17.760002       6.0000     15.9994
  122   2 H    1       3.720000  -13.530001   17.750000       1.0000      1.0079
  123   2 H    1       4.200000  -12.600001   18.660000       1.0000      1.0079
  124   1 O    8     -22.800003   12.910000   32.410004       6.0000     15.9994
  125   2 H    1     -31.400002   27.180002   31.450003       1.0000      1.0079
  126   2 H    1     -21.860001   13.130001   32.370003       1.0000      1.0079
  127   1 O    8     -10.690001   -6.140000   16.440001       6.0000     15.9994
  128   2 H    1     -11.050000   -6.290000   15.500001       1.0000      1.0079
  129   2 H    1     -18.210001    8.870000   16.220001       1.0000      1.0079
  130   1 O    8      -8.260000    4.900000   29.180002       6.0000     15.9994
  131   2 H    1      -8.720000    4.410000   28.400002       1.0000      1.0079
  132   2 H    1      -7.320001    4.860000   28.930000       1.0000      1.0079
  133   1 O    8      -2.620000   24.270000    8.090000       6.0000     15.9994
  134   2 H    1      -3.080000   25.140001    8.170000       1.0000      1.0079
  135   2 H    1      -1.760000   24.300001    8.600000       1.0000      1.0079
  136   1 O    8     -33.840000   16.330002   26.580002       6.0000     15.9994
  137   2 H    1     -34.560001   15.930000   26.080000       1.0000      1.0079
  138   2 H    1     -33.880001   16.020000   27.550001       1.0000      1.0079
  139   1 O    8      -4.370000    2.400000   29.760000       6.0000     15.9994
  140   2 H    1      -3.430000    2.370000   29.400002       1.0000      1.0079
  141   2 H    1      -4.860000    1.520000   29.620001       1.0000      1.0079
  142   1 O    8       0.410000   15.950001   21.290001       6.0000     15.9994
  143   2 H    1       0.520000   16.910002   21.410000       1.0000      1.0079
  144   2 H    1      -0.570000   15.840001   21.430000       1.0000      1.0079
  145   1 O    8     -14.650001   27.320002   17.750000       6.0000     15.9994
  146   2 H    1       1.720000   26.520002   17.960001       1.0000      1.0079
  147   2 H    1     -14.990001   28.060001   18.270000       1.0000      1.0079
  148   1 O    8     -32.420002   21.060001   31.860001       6.0000     15.9994
  149   2 H    1     -33.390003   20.990002   32.160000       1.0000      1.0079
  150   2 H    1     -32.000000   20.170002   31.850002       1.0000      1.0079
  151   1 O    8      -8.260000   -1.580000   23.770000       6.0000     15.9994
  152   2 H    1      -8.760000   -1.970000   24.550001       1.0000      1.0079
  153   2 H    1      -8.710001   -2.050000   22.970001       1.0000      1.0079
  154   1 O    8     -32.220001  -21.000002   24.410002       6.0000     15.9994
  155   2 H    1     -31.410000  -21.360001   24.830000       1.0000      1.0079
  156   2 H    1     -32.220001  -21.500000   23.549999       1.0000      1.0079
  157   1 O    8      16.220001  -11.510000   11.820001       6.0000     15.9994
  158   2 H    1      16.260000  -11.370001   10.840001       1.0000      1.0079
  159   2 H    1      16.890001  -12.080001   12.210001       1.0000      1.0079
  160   1 O    8      -5.420001   -5.060000   13.150001       6.0000     15.9994
  161   2 H    1      -4.870000   -5.380001   12.330000       1.0000      1.0079
  162   2 H    1      -5.160000   -5.520000   14.040001       1.0000      1.0079
  163   1 O    8      38.990002   -8.370000   29.600000       6.0000     15.9994
  164   2 H    1      38.300003   -9.050000   29.430000       1.0000      1.0079
  165   2 H    1      39.060001   -7.850000   28.720001       1.0000      1.0079
  166   1 O    8       4.720000   -3.060000   24.710003       6.0000     15.9994
  167   2 H    1       4.390000   -2.990000   23.760002       1.0000      1.0079
  168   2 H    1       4.260000   -3.950000   24.990002       1.0000      1.0079
  169   1 O    8     -53.230003    6.350000   23.770000       6.0000     15.9994
  170   2 H    1     -35.590004    6.130000   24.480001       1.0000      1.0079
  171   2 H    1     -36.850002    7.110000   24.150002       1.0000      1.0079
  172   1 O    8       9.630001  -18.810001   18.360001       6.0000     15.9994
  173   2 H    1       8.600000  -18.850000   18.560001       1.0000      1.0079
  174   2 H    1       9.790000  -19.670002   17.920000       1.0000      1.0079
  175   1 O    8       6.510000  -19.290001   23.110001       6.0000     15.9994
  176   2 H    1       5.630000  -18.990000   23.380001       1.0000      1.0079
  177   2 H    1       6.430000  -19.560001   22.180002       1.0000      1.0079
  178   1 O    8      -7.100000   23.970001   32.860001       6.0000     15.9994
  179   2 H    1      -7.560000   24.620001   33.450005       1.0000      1.0079
  180   2 H    1      -7.970000   23.580000   32.510002       1.0000      1.0079
  181   1 O    8       9.350000   15.240001   12.310000       6.0000     15.9994
  182   2 H    1       8.640000   15.380001   11.640000       1.0000      1.0079
  183   2 H    1      10.220001   15.450001   11.840000       1.0000      1.0079
  184   1 O    8      10.630001  -14.390000   19.530001       6.0000     15.9994
  185   2 H    1       9.810000  -13.790001   19.470001       1.0000      1.0079
  186   2 H    1      11.390000  -13.930000   19.120001       1.0000      1.0079
  187   1 O    8     -21.580000   52.050003    9.140000       6.0000     15.9994
  188   2 H    1     -20.870001   52.170006    8.520000       1.0000      1.0079
  189   2 H    1     -22.450001   52.140003    8.750001       1.0000      1.0079
  190   1 O    8      12.940001   15.440001   18.180000       6.0000     15.9994
  191   2 H    1      13.610001   14.880000   18.720001       1.0000      1.0079
  192   2 H    1      13.480000   16.250002   17.930000       1.0000      1.0079
  193   1 O    8       6.990001   -2.370000   25.960003       6.0000     15.9994
  194   2 H    1       7.480001   -3.190000   26.160002       1.0000      1.0079
  195   2 H    1       6.260000   -2.790000   25.400002       1.0000      1.0079
  196   1 O    8     -37.570004   -8.220000   14.870001       6.0000     15.9994
  197   2 H    1     -36.690002   -8.030001   15.360001       1.0000      1.0079
  198   2 H    1     -37.410004   -8.800000   14.110001       1.0000      1.0079
  199   1 O    8     -22.450001   21.890001   28.570002       6.0000     15.9994
  200   2 H    1     -22.070000   22.770002   28.820002       1.0000      1.0079
  201   2 H    1     -21.830002   21.180000   28.910000       1.0000      1.0079
  202   1 O    8       7.930000   12.730000    8.890000       6.0000     15.9994
  203   2 H    1       8.590000   12.500000    8.150001       1.0000      1.0079
  204   2 H    1       7.180000   13.060001    8.340000       1.0000      1.0079
  205   1 O    8      21.060001    0.860000   14.970001       6.0000     15.9994
  206   2 H    1      13.180000   14.660001   14.990001       1.0000      1.0079
  207   2 H    1      20.889999    1.030000   15.900001       1.0000      1.0079
  208   1 O    8     -21.410000   -9.000000    9.660000       6.0000     15.9994
  209   2 H    1     -20.730001   -9.450001    9.080001       1.0000      1.0079
  210   2 H    1     -21.490002   -8.010000    9.440001       1.0000      1.0079
  211   1 O    8      -5.440001   -5.180000   21.530001       6.0000     15.9994
  212   2 H    1      -5.720000   -4.650001   20.750000       1.0000      1.0079
  213   2 H    1      -4.920000   -4.520000   22.130001       1.0000      1.0079
  214   1 O    8      22.500000    8.600000   32.470001       6.0000     15.9994
  215   2 H    1      23.170002    7.900000   32.340004       1.0000      1.0079
  216   2 H    1      22.130001    8.730000   31.550003       1.0000      1.0079
  217   1 O    8     -45.700001   13.970001   11.830001       6.0000     15.9994
  218   2 H    1     -46.639999   14.370001   11.570001       1.0000      1.0079
  219   2 H    1     -45.360001   14.680000   12.320002       1.0000      1.0079
  220   1 O    8      30.380001    7.980001   27.330000       6.0000     15.9994
  221   2 H    1      30.620001    8.690001   28.040001       1.0000      1.0079
  222   2 H    1      31.240002    7.890000   26.900002       1.0000      1.0079
  223   1 O    8      10.780001    0.000000   11.270000       6.0000     15.9994
  224   2 H    1      27.440002    0.310000   10.360001       1.0000      1.0079
  225   2 H    1      10.230000   -0.780000   11.340000       1.0000      1.0079
  226   1 O    8       6.040000   35.480000   21.000002       6.0000     15.9994
  227   2 H    1       6.250000   34.870003   20.240002       1.0000      1.0079
  228   2 H    1      22.990000   36.430000   20.580002       1.0000      1.0079
  229   1 O    8     -16.350000   29.770002   32.790001       6.0000     15.9994
  230   2 H    1     -16.220001   29.500000   33.700001       1.0000      1.0079
  231   2 H    1     -15.470000   29.540003   32.450001       1.0000      1.0079
  232   1 O    8       1.790000   -4.140000   33.370003       6.0000     15.9994
  233   2 H    1       0.760000   -4.150000   33.040001       1.0000      1.0079
  234   2 H    1       2.200000   -3.240000   33.260002       1.0000      1.0079
  235   1 O    8      -5.420001   34.070000   28.790001       6.0000     15.9994
  236   2 H    1      -5.020000   33.110001   28.890001       1.0000      1.0079
  237   2 H    1      -5.280000   34.240002   27.810001       1.0000      1.0079
  238   1 O    8      -1.860000    2.610000   28.790001       6.0000     15.9994
  239   2 H    1      -9.890000   18.010002   29.250002       1.0000      1.0079
  240   2 H    1      -2.230000    2.990000   27.889999       1.0000      1.0079
  241   1 O    8      17.950001   -2.380000   29.830000       6.0000     15.9994
  242   2 H    1      17.160000   -1.910000   30.200003       1.0000      1.0079
  243   2 H    1      18.580000   -1.820000   29.310001       1.0000      1.0079
  244   1 O    8       4.570000  -10.900001   22.580002       6.0000     15.9994
  245   2 H    1       4.800000   -9.910001   22.840002       1.0000      1.0079
  246   2 H    1       5.060000  -11.520000   23.190001       1.0000      1.0079
  247   1 O    8      14.600000    4.370000   26.260002       6.0000     15.9994
  248   2 H    1      15.410002    4.920000   26.049999       1.0000      1.0079
  249   2 H    1      13.780001    4.810000   25.970001       1.0000      1.0079
  250   1 O    8      28.700001  -10.100000   16.250002       6.0000     15.9994
  251   2 H    1      28.030003  -10.690001   15.750000       1.0000      1.0079
  252   2 H    1      29.020002   -9.410001   15.650001       1.0000      1.0079
  253   1 O    8      -5.760000   -1.460000   19.520000       6.0000     15.9994
  254   2 H    1      -6.190000   -0.520000   19.420002       1.0000      1.0079
  255   2 H    1      -5.120000   -1.310000   20.250000       1.0000      1.0079
  256   1 O    8       6.980000  -18.800001   18.700001       6.0000     15.9994
  257   2 H    1       6.440001  -19.040001   17.870001       1.0000      1.0079
  258   2 H    1       6.930000  -17.810001   18.770000       1.0000      1.0079
  259   1 O    8     -14.340000   27.490002   25.580002       6.0000     15.9994
  260   2 H    1     -14.780001   26.560001   25.710001       1.0000      1.0079
  261   2 H    1     -13.410001   27.220001   25.389999       1.0000      1.0079
  262   1 O    8      -5.270000   -9.480001   20.459999       6.0000     15.9994
  263   2 H    1      -5.310000  -10.300001   21.020000       1.0000      1.0079
  264   2 H    1      -4.360000   -9.010000   20.430000       1.0000      1.0079
  265   1 O    8      26.680002   -9.320001    8.770000       6.0000     15.9994
  266   2 H    1      27.650002   -9.380000    9.040001       1.0000      1.0079
  267   2 H    1      35.290001    5.420001    7.750000       1.0000      1.0079
  268   1 O    8       2.340000  -14.570000   29.860001       6.0000     15.9994
  269   2 H    1       2.820000  -15.170001   29.150002       1.0000      1.0079
  270   2 H    1       2.540000  -14.910001   30.730001       1.0000      1.0079
  271   1 O    8       0.370000   -7.030000   18.970001       6.0000     15.9994
  272   2 H    1       1.260000   -7.000000   18.810001       1.0000      1.0079
  273   2 H    1       0.200000   -6.510000   19.770000       1.0000      1.0079
  274   1 O    8     -11.170001  -12.380000   24.620001       6.0000     15.9994
  275   2 H    1     -11.070000  -11.570001   25.240002       1.0000      1.0079
  276   2 H    1     -11.930000  -12.930001   25.020000       1.0000      1.0079
  277   1 O    8      10.290001    9.280001    8.510000       6.0000     15.9994
  278   2 H    1      -6.280000    9.230001    7.540000       1.0000      1.0079
  279   2 H    1       9.280001    9.130000    8.570001       1.0000      1.0079
  280   1 O    8      33.700001    0.810000   27.340002       6.0000     15.9994
  281   2 H    1      33.110001    1.450000   27.850000       1.0000      1.0079
  282   2 H    1      33.049999    0.250000   26.870001       1.0000      1.0079
  283   1 O    8      16.220001  -14.920001   17.570002       6.0000     15.9994
  284   2 H    1       7.250000   -0.450000   18.430000       1.0000      1.0079
  285   2 H    1      16.080000  -15.600000   16.860001       1.0000      1.0079
  286   1 O    8     -33.780003   21.010000   22.480001       6.0000     15.9994
  287   2 H    1     -16.350000   20.260000   22.460001       1.0000      1.0079
  288   2 H    1     -34.720001   20.770000   22.130001       1.0000      1.0079
  289   1 O    8      -3.790000    9.450001   18.240002       6.0000     15.9994
  290   2 H    1      -4.020000   10.360001   18.100000       1.0000      1.0079
  291   2 H    1      -3.090000    9.230001   17.550001       1.0000      1.0079
  292   1 O    8      24.670000   -6.970000   27.010002       6.0000     15.9994
  293   2 H    1      25.140001   -6.060000   26.820002       1.0000      1.0079
  294   2 H    1      24.980001   -7.480001   27.850000       1.0000      1.0079
  295   1 O    8      11.170001   13.530001   28.370001       6.0000     15.9994
  296   2 H    1      11.070000   13.450001   27.350002       1.0000      1.0079
  297   2 H    1      12.120000   13.530001   28.530003       1.0000      1.0079
  298   1 O    8      -8.270000   21.119999   29.310001       6.0000     15.9994
  299   2 H    1      -8.310000   20.160000   29.540003       1.0000      1.0079
  300   2 H    1      -7.350000   21.370001   29.120003       1.0000      1.0079
  301   1 O    8     -17.360001    6.860001    9.610001       6.0000     15.9994
  302   2 H    1     -17.160000    6.610000   10.510000       1.0000      1.0079
  303   2 H    1     -16.750000    6.250000    9.140000       1.0000      1.0079
  304   1 O    8       1.550000    0.080000   23.900002       6.0000     15.9994
  305   2 H    1       1.760000   -0.630000   24.560001       1.0000      1.0079
  306   2 H    1       1.350000    0.830000   24.470001       1.0000      1.0079
  307   1 O    8     -27.510002   17.620001   11.250000       6.0000     15.9994
  308   2 H    1     -27.720001   18.570002   11.440001       1.0000      1.0079
  309   2 H    1     -27.850000   17.160000   12.050000       1.0000      1.0079
  310   1 O    8     -16.960001   15.720000   29.330002       6.0000     15.9994
  311   2 H    1     -17.680000   15.180001   29.680002       1.0000      1.0079
  312   2 H    1     -15.980000   15.210000   29.550001       1.0000      1.0079
  313   1 O    8      -8.660001    9.100000   14.760000       6.0000     15.9994
  314   2 H    1      -8.020000    9.710001   15.220001       1.0000      1.0079
  315   2 H    1      -9.510000    9.450001   15.090000       1.0000      1.0079
  316   1 O    8       1.640000  -10.830001   32.360001       6.0000     15.9994
  317   2 H    1       0.790000  -11.180000   31.950001       1.0000      1.0079
  318   2 H    1       1.320000  -10.559999   33.260002       1.0000      1.0079
  319   1 O    8      -2.180000  -15.600000   19.570002       6.0000     15.9994
  320   2 H    1      -2.810000  -16.190001   19.060001       1.0000      1.0079
  321   2 H    1      -2.000000  -16.130001   20.400002       1.0000      1.0079
  322   1 O    8      28.549999  -14.340000   22.130001       6.0000     15.9994
  323   2 H    1      28.090000  -14.120001   21.260002       1.0000      1.0079
  324   2 H    1      27.840002  -14.260001   22.860001       1.0000      1.0079
  325   1 O    8     -11.230000   -1.820000   14.960001       6.0000     15.9994
  326   2 H    1     -11.840000   -2.500000   14.620000       1.0000      1.0079
  327   2 H    1     -10.300001   -2.060000   14.800000       1.0000      1.0079
  328   1 O    8      -5.580000   -0.520000   14.950001       6.0000     15.9994
  329   2 H    1      -5.380001   -1.080000   15.690001       1.0000      1.0079
  330   2 H    1      -4.750000   -0.290000   14.570000       1.0000      1.0079
  331   1 O    8     -18.630001   50.740005   29.510002       6.0000     15.9994
  332   2 H    1     -17.889999   50.100002   29.240000       1.0000      1.0079
  333   2 H    1     -18.600002   51.390003   28.750002       1.0000      1.0079
  334   1 O    8      -7.540000  -10.210000   23.150002       6.0000     15.9994
  335   2 H    1      -8.130000  -10.550001   22.440002       1.0000      1.0079
  336   2 H    1      -6.600000  -10.270000   22.700003       1.0000      1.0079
  337   1 O    8      11.120001   28.530003   32.500004       6.0000     15.9994
  338   2 H    1      20.020000   14.760000   32.740002       1.0000      1.0079
  339   2 H    1      -5.120000   27.860001   32.380001       1.0000      1.0079
  340   1 O    8      19.580000   22.260000   17.940001       6.0000     15.9994
  341   2 H    1      20.389999   22.830000   18.120001       1.0000      1.0079
  342   2 H    1      19.630001   21.700001   17.140001       1.0000      1.0079
  343   1 O    8       6.440001    0.640000   24.940002       6.0000     15.9994
  344   2 H    1       6.550000   -0.320000   24.990002       1.0000      1.0079
  345   2 H    1       6.530001    0.880000   24.020002       1.0000      1.0079
  346   1 O    8      -1.900000   -4.810000   28.050001       6.0000     15.9994
  347   2 H    1      -0.920000   -4.860000   28.390003       1.0000      1.0079
  348   2 H    1      -1.940000   -5.140000   27.160000       1.0000      1.0079
  349   1 O    8       3.720000    2.780000   28.610001       6.0000     15.9994
  350   2 H    1       2.900000    2.310000   28.860001       1.0000      1.0079
  351   2 H    1       3.900000    2.640000   27.620001       1.0000      1.0079
  352   1 O    8      -4.070000   20.070002   29.880001       6.0000     15.9994
  353   2 H    1      -3.940000   19.320000   29.310001       1.0000      1.0079
  354   2 H    1      -3.240000   20.610001   29.820002       1.0000      1.0079
  355   1 O    8       1.550000   -2.960000   15.390000       6.0000     15.9994
  356   2 H    1       1.040000   -2.630000   14.630001       1.0000      1.0079
  357   2 H    1       1.510000   -2.280000   16.120001       1.0000      1.0079
  358   1 O    8       6.830000   15.350000   17.930000       6.0000     15.9994
  359   2 H    1       7.510000   16.030001   18.120001       1.0000      1.0079
  360   2 H    1       5.860000   15.620001   17.960001       1.0000      1.0079
  361   1 O    8     -33.020000    1.180000   29.910002       6.0000     15.9994
  362   2 H    1     -32.260002    0.830000   30.400002       1.0000      1.0079
  363   2 H    1     -32.910000    0.990000   28.960001       1.0000      1.0079
  364   1 O    8      -0.110000   35.400002   12.330000       6.0000     15.9994
  365   2 H    1      -1.010000   35.150002   12.680000       1.0000      1.0079
  366   2 H    1       0.580000   34.750000   12.540001       1.0000      1.0079
  367   1 O    8      14.900002   26.220001   11.380000       6.0000     15.9994
  368   2 H    1      14.470000   26.920002   11.860001       1.0000      1.0079
  369   2 H    1      14.970001   26.490002   10.430001       1.0000      1.0079
  370   1 O    8     -16.710001   -8.050001   25.300003       6.0000     15.9994
  371   2 H    1     -16.600000   -9.010000   25.660002       1.0000      1.0079
  372   2 H    1     -16.970001   -8.280001   24.340000       1.0000      1.0079
  373   1 O    8      -4.180000   -3.200000   31.790001       6.0000     15.9994
  374   2 H    1      -4.190001   -3.710000   32.600002       1.0000      1.0079
  375   2 H    1      -3.280000   -2.800000   31.830002       1.0000      1.0079
  376   1 O    8     -15.110001   11.370001    8.820001       6.0000     15.9994
  377   2 H    1     -15.790001   11.860001    9.360001       1.0000      1.0079
  378   2 H    1     -15.500001   10.440001    8.900001       1.0000      1.0079
  379   1 O    8      -0.570000  -10.330000   26.550003       6.0000     15.9994
  380   2 H    1      -0.580000  -11.340000   26.680002       1.0000      1.0079
  381   2 H    1      -1.480000  -10.020000   26.350002       1.0000      1.0079
  382   1 O    8       3.270000   -8.320000   20.680000       6.0000     15.9994
  383   2 H    1       4.270000   -8.470000   20.720001       1.0000      1.0079
  384   2 H    1       3.320000   -7.990000   19.750002       1.0000      1.0079
  385   1 O    8     -10.060000   35.820004   16.570000       6.0000     15.9994
  386   2 H    1      -9.170000   36.200001   16.770000       1.0000      1.0079
  387   2 H    1     -10.180000   35.150002   17.340000       1.0000      1.0079
  388   1 O    8      -1.560000   10.300001   11.750001       6.0000     15.9994
  389   2 H    1      -0.660000    9.820001   11.670000       1.0000      1.0079
  390   2 H    1      -1.890000   10.460000   10.860001       1.0000      1.0079
  391   1 O    8       0.890000   19.030001   19.790001       6.0000     15.9994
  392   2 H    1       1.080000   19.970001   19.750002       1.0000      1.0079
  393   2 H    1       1.010000   18.890001   18.760000       1.0000      1.0079
  394   1 O    8       0.680000   24.430000   11.870001       6.0000     15.9994
  395   2 H    1       8.860001    9.450001   12.790001       1.0000      1.0079
  396   2 H    1       1.640000   24.430000   11.750001       1.0000      1.0079
  397   1 O    8      14.530001    4.750000    8.240001       6.0000     15.9994
  398   2 H    1      14.240000    3.820000    8.130000       1.0000      1.0079
  399   2 H    1      15.510001    4.670000    8.280001       1.0000      1.0079
  400   1 O    8      13.450001   19.320000   25.680000       6.0000     15.9994
  401   2 H    1      13.020000   20.200001   25.820000       1.0000      1.0079
  402   2 H    1      12.840000   18.540001   25.670002       1.0000      1.0079
  403   1 O    8      21.040001   49.350006   33.410000       6.0000     15.9994
  404   2 H    1      21.590002   48.500004   33.400002       1.0000      1.0079
  405   2 H    1      21.850002   49.980003   33.160004       1.0000      1.0079
  406   1 O    8      12.600001    0.010000   25.310001       6.0000     15.9994
  407   2 H    1      12.190001   -0.230000   26.150000       1.0000      1.0079
  408   2 H    1      11.870001    0.030000   24.620001       1.0000      1.0079
  409   1 O    8      21.240002    4.790000   12.540001       6.0000     15.9994
  410   2 H    1      21.380001    5.240001   11.700001       1.0000      1.0079
  411   2 H    1      21.730001    3.950000   12.540001       1.0000      1.0079
  412   1 O    8     -24.880001  -12.000000   18.820002       6.0000     15.9994
  413   2 H    1     -24.500000  -11.120001   18.560001       1.0000      1.0079
  414   2 H    1     -25.430002  -11.700001   19.540001       1.0000      1.0079
  415   1 O    8     -21.800001    9.440001   25.590000       6.0000     15.9994
  416   2 H    1     -21.119999    9.130000   26.280001       1.0000      1.0079
  417   2 H    1     -22.110003    8.540000   25.160000       1.0000      1.0079
  418   1 O    8      18.070000   21.470001   14.280001       6.0000     15.9994
  419   2 H    1      17.440001   22.240002   14.440001       1.0000      1.0079
  420   2 H    1      17.460001   20.740002   14.080001       1.0000      1.0079
  421   1 O    8      17.920000    3.000000    9.980000       6.0000     15.9994
  422   2 H    1      17.790001    3.690000    9.280001       1.0000      1.0079
  423   2 H    1      17.130001    2.360000    9.650001       1.0000      1.0079
  424   1 O    8     -15.180001    7.210000   21.670000       6.0000     15.9994
  425   2 H    1     -14.650001    6.450000   21.250000       1.0000      1.0079
  426   2 H    1      -6.130000   -6.640000   21.660002       1.0000      1.0079
  427   1 O    8      -4.910000    4.690000   26.040001       6.0000     15.9994
  428   2 H    1      -4.990000    5.590000   25.590000       1.0000      1.0079
  429   2 H    1      -5.480001    4.170000   25.459999       1.0000      1.0079
  430   1 O    8     -13.400001    3.030000   33.340000       6.0000     15.9994
  431   2 H    1     -13.750001    3.980000   33.000000       1.0000      1.0079
  432   2 H    1     -12.420001    3.140000   33.279999       1.0000      1.0079
  433   1 O    8      -6.870000  -26.580002   24.930000       6.0000     15.9994
  434   2 H    1      -6.530001  -27.460001   24.590000       1.0000      1.0079
  435   2 H    1      -7.660000  -26.880001   25.470001       1.0000      1.0079
  436   1 O    8       9.950001   25.590000   28.910000       6.0000     15.9994
  437   2 H    1      10.450001   24.930000   29.430000       1.0000      1.0079
  438   2 H    1      17.590000   11.230000   29.390001       1.0000      1.0079
  439   1 O    8       5.750000    4.280000   23.260002       6.0000     15.9994
  440   2 H    1       5.840001    4.940000   22.580002       1.0000      1.0079
  441   2 H    1       5.470000    4.600000   24.170000       1.0000      1.0079
  442   1 O    8       3.780000   16.500000   32.540001       6.0000     15.9994
  443   2 H    1       3.980000   16.570000   31.560001       1.0000      1.0079
  444   2 H    1       3.010000   17.160000   32.590000       1.0000      1.0079
  445   1 O    8     -10.400001   12.750001   32.410004       6.0000     15.9994
  446   2 H    1     -10.100000   13.330001   31.590002       1.0000      1.0079
  447   2 H    1     -10.370001   13.200001   33.350002       1.0000      1.0079
  448   1 O    8       1.580000  -14.590001    8.800000       6.0000     15.9994
  449   2 H    1       1.680000  -13.860001    8.140000       1.0000      1.0079
  450   2 H    1      18.210001  -15.380001    8.220000       1.0000      1.0079
  451   1 O    8      20.270002   13.140000   28.080002       6.0000     15.9994
  452   2 H    1      19.650002   12.420001   28.010002       1.0000      1.0079
  453   2 H    1      21.220001   12.820001   28.310001       1.0000      1.0079
  454   1 O    8       0.020000    5.920000   32.730003       6.0000     15.9994
  455   2 H    1      -0.170000    5.850000   33.670002       1.0000      1.0079
  456   2 H    1       1.020000    5.930000   32.680000       1.0000      1.0079
  457   1 O    8       8.640000  -16.900002   13.160001       6.0000     15.9994
  458   2 H    1       8.460000  -15.990001   12.760000       1.0000      1.0079
  459   2 H    1       8.750001  -17.600000   12.440001       1.0000      1.0079
  460   1 O    8      28.620003    2.780000   20.320000       6.0000     15.9994
  461   2 H    1      27.730003    3.320000   20.270002       1.0000      1.0079
  462   2 H    1      12.180000    3.190000   21.150000       1.0000      1.0079
  463   1 O    8     -10.960001  -24.730000    8.230000       6.0000     15.9994
  464   2 H    1     -10.440001  -25.500002    8.080000       1.0000      1.0079
  465   2 H    1     -10.310000  -24.020002    8.700001       1.0000      1.0079
  466   1 O    8       9.650001  -18.650002   26.150000       6.0000     15.9994
  467   2 H    1      10.460000  -19.170000   26.000002       1.0000      1.0079
  468   2 H    1       9.380000  -19.000000   27.060001       1.0000      1.0079
  469   1 O    8      -8.720000  -11.590000   32.580002       6.0000     15.9994
  470   2 H    1      -8.180000  -11.070000   33.160004       1.0000      1.0079
  471   2 H    1      -8.360001  -12.510000   32.610001       1.0000      1.0079
  472   1 O    8     -11.000000   -8.850000   20.350000       6.0000     15.9994
  473   2 H    1     -10.740000   -8.750001   19.450001       1.0000      1.0079
  474   2 H    1     -10.250001   -8.330001   20.790001       1.0000      1.0079
  475   1 O    8      20.889999    2.380000   25.910000       6.0000     15.9994
  476   2 H    1      19.940001    2.260000   25.730001       1.0000      1.0079
  477   2 H    1      21.500000    1.720000   25.490000       1.0000      1.0079
  478   1 O    8     -23.630001   30.170002   18.590000       6.0000     15.9994
  479   2 H    1     -24.370001   29.700001   18.140001       1.0000      1.0079
  480   2 H    1     -24.100000   30.630001   19.330002       1.0000      1.0079
  481   1 O    8       8.730000   12.780001   21.639999       6.0000     15.9994
  482   2 H    1       9.430000   12.190001   21.260002       1.0000      1.0079
  483   2 H    1       8.470000   12.430000   22.530001       1.0000      1.0079
  484   1 O    8      -1.340000   38.710003   20.140001       6.0000     15.9994
  485   2 H    1      -1.200000   37.950001   20.760002       1.0000      1.0079
  486   2 H    1      -2.180000   38.600002   19.690001       1.0000      1.0079
  487   1 O    8       6.660000   44.680004   22.520000       6.0000     15.9994
  488   2 H    1       7.550001   44.240002   22.770002       1.0000      1.0079
  489   2 H    1       6.370000   45.030003   23.470001       1.0000      1.0079
  490   1 O    8      13.570002   23.650000   11.450001       6.0000     15.9994
  491   2 H    1      14.120001   24.470001   11.360001       1.0000      1.0079
  492   2 H    1      13.110001   23.660002   10.610001       1.0000      1.0079
  493   1 O    8       3.040000    1.070000   31.450003       6.0000     15.9994
  494   2 H    1      -5.120000   16.260000   32.210003       1.0000      1.0079
  495   2 H    1       3.840000    0.630000   31.160002       1.0000      1.0079
  496   1 O    8      15.910001   11.780001   30.180000       6.0000     15.9994
  497   2 H    1       7.160000   25.710001   29.520000       1.0000      1.0079
  498   2 H    1       7.300000   25.920000   31.000002       1.0000      1.0079
  499   1 O    8      10.580001   11.110001   20.750000       6.0000     15.9994
  500   2 H    1      10.320001   10.750000   19.910000       1.0000      1.0079
  501   2 H    1      10.400001   10.370001   21.400002       1.0000      1.0079
  502   1 O    8      -4.140000   -3.320000   23.320000       6.0000     15.9994
  503   2 H    1      -3.910000   -2.560000   22.690001       1.0000      1.0079
  504   2 H    1      -4.870000   -3.040000   23.850002       1.0000      1.0079
  505   1 O    8      26.260002    3.880000   17.300001       6.0000     15.9994
[...]
    899      3      Pt          0.01146784    -0.00054710    -0.00255355
    900      3      Pt         -0.00146206    -0.01020403    -0.00743498
    901      3      Pt          0.00243818    -0.00937526    -0.00096115
    902      3      Pt         -0.00514443    -0.00523064    -0.00716430
    903      3      Pt         -0.00362934     0.00686958     0.01519379
    904      3      Pt         -0.01245556    -0.01847113    -0.01125473
    905      3      Pt          0.00421424    -0.00741175     0.00970835
    906      3      Pt          0.00338965    -0.01134100    -0.00056764
 SUM OF ATOMIC FORCES          -0.00579077    -0.01177691    -0.07298003     0.07415061

 STRESS| Analytical stress tensor [GPa]
 STRESS|                        x                   y                   z
 STRESS|      x       -2.13593852143E+00  -1.13967128153E-01  -9.53936203980E-02
 STRESS|      y       -1.13967128153E-01  -2.36843388136E+00   1.62156871733E-02
 STRESS|      z       -9.53936203980E-02   1.62156871733E-02  -1.40351397978E-01
 STRESS| 1/3 Trace                                            -1.54824126692E+00
 STRESS| Determinant                                          -6.85723949995E-01

 STRESS| Eigenvectors and eigenvalues of the analytical stress tensor [GPa]
 STRESS|                        1                   2                   3
 STRESS| Eigenvalues  -2.41517792418E+00  -2.09395420714E+00  -1.35591669450E-01
 STRESS|      x           0.380599160007      0.923483922264     -0.048184278775
 STRESS|      y           0.924692655184     -0.380590530400      0.009712961354
 STRESS|      z           0.009368716568      0.048252393611      0.998791236275

 -------------------------------------------------------------------------------
 -                                                                             -
 -                                DBCSR STATISTICS                             -
 -                                                                             -
 -------------------------------------------------------------------------------
 COUNTER                                    TOTAL       BLAS       SMM       ACC
 flops     5 x     5 x   288          87271214400       0.0%    100.0%      0.0%
 flops     5 x     5 x   292          88483314600       0.0%    100.0%      0.0%
 flops     5 x    13 x   288          98406135360       0.0%    100.0%      0.0%
 flops    13 x     5 x   288          98436461760       0.0%    100.0%      0.0%
 flops     5 x    13 x   292          99772887240       0.0%    100.0%      0.0%
 flops    13 x     5 x   292          99803634840       0.0%    100.0%      0.0%
 flops    20 x    13 x   288         101981617920       0.0%    100.0%      0.0%
 flops    13 x    20 x   288         102151445760       0.0%    100.0%      0.0%
 flops    20 x    13 x   292         103398029280       0.0%    100.0%      0.0%
 flops    13 x    20 x   292         103570215840       0.0%    100.0%      0.0%
 flops    13 x    13 x   288         105121006848       0.0%    100.0%      0.0%
 flops    13 x    13 x   292         106581020832       0.0%    100.0%      0.0%
 flops     5 x    20 x   288         110542060800       0.0%    100.0%      0.0%
 flops    20 x     5 x   288         110756678400       0.0%    100.0%      0.0%
 flops     5 x    20 x   292         112077367200       0.0%    100.0%      0.0%
 flops    20 x     5 x   292         112294965600       0.0%    100.0%      0.0%
 flops    20 x    20 x   288         437372006400       0.0%    100.0%      0.0%
 flops    20 x    20 x   292         443446617600       0.0%    100.0%      0.0%
 flops     5 x     5 x   320         581808096000       0.0%    100.0%      0.0%
 flops     5 x    13 x   320         656040902400       0.0%    100.0%      0.0%
 flops    13 x     5 x   320         656243078400       0.0%    100.0%      0.0%
 flops    20 x    13 x   320         679877452800       0.0%    100.0%      0.0%
 flops    13 x    20 x   320         681009638400       0.0%    100.0%      0.0%
 flops    13 x    13 x   320         700806712320       0.0%    100.0%      0.0%
 flops     5 x    20 x   320         736947072000       0.0%    100.0%      0.0%
 flops    20 x     5 x   320         738377856000       0.0%    100.0%      0.0%
 flops    20 x    20 x   320        2915813376000       0.0%    100.0%      0.0%
 flops inhomo. stacks                           0       0.0%      0.0%      0.0%
 flops total                        10.868391E+12       0.0%    100.0%      0.0%
 flops max/rank                    175.862745E+09       0.0%    100.0%      0.0%
 matmuls inhomo. stacks                         0       0.0%      0.0%      0.0%
 matmuls total                          156010536       0.0%    100.0%      0.0%
 number of processed stacks                414720       0.0%    100.0%      0.0%
 average stack size                                     0.0     376.2       0.0
 marketing flops                    30.826564E+12
 -------------------------------------------------------------------------------
 # multiplications                             81
 max memory usage/rank               1.879925E+09
 # max total images/rank                        1
 # max 3D layers                                1
 # MPI messages exchanged                   72576
 MPI messages size (bytes):
  total size                       217.954714E+09
  min size                           2.762496E+06
  max size                           3.077120E+06
  average size                       3.003124E+06
 MPI breakdown and total messages size (bytes):
             size <=      128                   0                        0
       128 < size <=     8192                   0                        0
      8192 < size <=    32768                   0                        0
     32768 < size <=   131072                   0                        0
    131072 < size <=  4194304               72576             217954800000
   4194304 < size <= 16777216                   0                        0
  16777216 < size                               0                        0
 -------------------------------------------------------------------------------
 -                                                                             -
 -                      DBCSR MESSAGE PASSING PERFORMANCE                      -
 -                                                                             -
 -------------------------------------------------------------------------------
 ROUTINE             CALLS      AVE VOLUME [Bytes]
 MP_Bcast               28                     12.
 MP_Allreduce          641                     10.
 MP_Alltoall          2268                1982520.
 MP_ISend             2592                1329597.
 MP_IRecv             2592                1310413.
 -------------------------------------------------------------------------------

 -------------------------------------------------------------------------------
 -                                                                             -
 -                                DBM STATISTICS                               -
 -                                                                             -
 -------------------------------------------------------------------------------
    M  x    N  x    K                                          COUNT     PERCENT
 -------------------------------------------------------------------------------

 -------------------------------------------------------------------------------
 -                                                                             -
 -                                GRID STATISTICS                              -
 -                                                                             -
 -------------------------------------------------------------------------------
 LP    KERNEL             BACKEND                              COUNT     PERCENT
 3     collocate general  REF                               56398761      18.94%
 3     integrate general  REF                               55760464      18.73%
 2     collocate general  REF                               52603587      17.67%
 2     integrate general  REF                               51954160      17.45%
 4     collocate general  REF                               39754557      13.35%
 4     integrate general  REF                               39263760      13.19%
 6     integrate general  REF                                 696281       0.23%
 5     integrate general  REF                                 649427       0.22%
 7     integrate general  REF                                 490797       0.16%
 0     collocate general  REF                                 115968       0.04%
 0     integrate general  REF                                  57984       0.02%
 -------------------------------------------------------------------------------

 MEMORY| Estimated peak process memory [MiB]                                2113

 -------------------------------------------------------------------------------
 ----                             MULTIGRID INFO                            ----
 -------------------------------------------------------------------------------
 count for grid        1:         730435          cutoff [a.u.]          200.00
 count for grid        2:         807166          cutoff [a.u.]           66.67
 count for grid        3:         741215          cutoff [a.u.]           22.22
 count for grid        4:         830858          cutoff [a.u.]            7.41
 total gridlevel count  :        3109674

 -------------------------------------------------------------------------------
 -                                                                             -
 -                         MESSAGE PASSING PERFORMANCE                         -
 -                                                                             -
 -------------------------------------------------------------------------------

 ROUTINE             CALLS      AVE VOLUME [Bytes]
 MP_Group                4
 MP_Bcast              262                2253303.
 MP_Allreduce         1365                   1836.
 MP_Sync                84
 MP_Alltoall          1798               14109800.
 MP_SendRecv           252                  14154.
 MP_ISendRecv        20412                 113680.
 MP_Wait             45668
 MP_ISend            23616                 340043.
 MP_IRecv            23616                 340043.
 MP_Recv               308                2460160.
 MP_Write_All            3                1540656.
 -------------------------------------------------------------------------------


 -------------------------------------------------------------------------------
 -                                                                             -
 -                           R E F E R E N C E S                               -
 -                                                                             -
 -------------------------------------------------------------------------------
 
 CP2K version 2022.1, the CP2K developers group (2022).
 CP2K is freely available from https://www.cp2k.org/ .

 Kuehne,Thomas D.; Iannuzzi,Marcella; Del Ben,Mauro;
 Rybkin,Vladimir V.; Seewald,Patrick; Stein,Frederick; Laino,Teodoro;
 Khaliullin,Rustam Z.; Schuett,Ole; Schiffmann,Florian; Golze,Dorothea;
 Wilhelm,Jan; Chulkov,Sergey; Bani-Hashemian,Mohammad Hossein;
 Weber,Valery; Borstnik,Urban; Taillefumier,Mathieu;
 Jakobovits,Alice Shoshana; Lazzaro,Alfio; Pabst,Hans; Mueller,Tiziano;
 Schade,Robert; Guidon,Manuel; Andermatt,Samuel; Holmberg,Nico;
 Schenter,Gregory K.; Hehn,Anna; Bussy,Augustin; Belleflamme,Fabian;
 Tabacchi,Gloria; Gloess,Andreas; Lass,Michael; Bethune,Iain;
 Mundy,Christopher J.; Plessl,Christian; Watkins,Matt;
 VandeVondele,Joost; Krack,Matthias; Hutter,Juerg. 
 The Journal of Chemical Physics, 152 (19), (2020). 
 CP2K: An electronic structure and molecular dynamics software package -
 Quickstep: Efficient and accurate electronic structure calculations.
 https://doi.org/10.1063/5.0007045

 Goerigk, Lars; Hansen, Andreas; Bauer, Christoph; Ehrlich, Stephan;
 Najibi, Asim; Grimme, Stefan. , 19 (48), (2017). 
 A look at the density functional theory zoo with the advanced GMTKN55 database
 for general main group thermochemistry, kinetics and noncovalent interactions.
 https://doi.org/10.1039/C7CP04913G

 Schuett, Ole; Messmer, Peter; Hutter, Juerg; VandeVondele, Joost. 
 Electronic Structure Calculations on Graphics Processing Units, John
 Wiley & Sons, Ltd, 173-190 (2016). 
 GPU-Accelerated Sparse Matrix-Matrix Multiplication for
 Linear Scaling Density Functional Theory.
 https://doi.org/10.1002/9781118670712.ch8

 Heinecke, A; Henry, G; Hutchinson, M; Pabst, H. 
 Proceedings of Intl. Supercomputing Conference, 981-991 (2016). 
 LIBXSMM: Accelerating Small Matrix Multiplications
 by Runtime Code Generation.
 https://doi.org/10.1109/SC.2016.83

 Borstnik, U; VandeVondele, J; Weber, V; Hutter, J. 
 PARALLEL COMPUTING, 40 (5-6), 47-58 (2014). 
 Sparse matrix multiplication: The distributed block-compressed sparse
 row library.
 https://doi.org/10.1016/j.parco.2014.03.012

 Hutter, J; Iannuzzi, M; Schiffmann, F; VandeVondele, J. 
 WIREs Comput Mol Sci., 4 (1), 15-25 (2014). 
 CP2K: atomistic simulations of condensed matter systems.
 https://doi.org/10.1002/wcms.1159

 Marek, A; Blum, V; Johanni, R; Havu, V; Lang, B; Auckenthaler, T;
 Heinecke, A; Bungartz, H; Lederer, H. 
 Journal of Physics: Condensed Matter, 26 (21), (2014). 
 The ELPA library: scalable parallel eigenvalue solutions for
 electronic structure
 theory and computational science.
 https://doi.org/10.1088/0953-8984/26/21/213201

 Grimme, S; Ehrlich, S; Goerigk, L. 
 JOURNAL OF COMPUTATIONAL CHEMISTRY, 32, 1456 (2011). 
 Effect of the damping function in dispersion corrected density functional theory.
 https://doi.org/10.1002/jcc.21759

 Grimme, S; Antony, J; Ehrlich, S; Krieg, H. 
 JOURNAL OF CHEMICAL PHYSICS, 132 (15), 154104 (2010). 
 A consistent and accurate ab initio parametrization of density
 functional dispersion correction (DFT-D) for the 94 elements H-Pu.
 https://doi.org/10.1063/1.3382344

 VandeVondele, J; Hutter, J. 
 JOURNAL OF CHEMICAL PHYSICS, 127 (11), 114105 (2007). 
 Gaussian basis sets for accurate calculations on molecular systems in
 gas and condensed phases.
 https://doi.org/10.1063/1.2770708

 Krack, M. 
 THEORETICAL CHEMISTRY ACCOUNTS, 114 (1-3), 145-152 (2005). 
 Pseudopotentials for H to Kr optimized for gradient-corrected
 exchange-correlation functionals.
 https://doi.org/10.1007/s00214-005-0655-y

 VandeVondele, J; Krack, M; Mohamed, F; Parrinello, M; Chassaing, T;
 Hutter, J. COMPUTER PHYSICS COMMUNICATIONS, 167 (2), 103-128 (2005). 
 QUICKSTEP: Fast and accurate density functional calculations using a
 mixed Gaussian and plane waves approach.
 https://doi.org/10.1016/j.cpc.2004.12.014

 Frigo, M; Johnson, SG. 
 PROCEEDINGS OF THE IEEE, 93 (2), 216-231 (2005). 
 The design and implementation of FFTW3.
 https://doi.org/10.1109/JPROC.2004.840301

 Hartwigsen, C; Goedecker, S; Hutter, J. 
 PHYSICAL REVIEW B, 58 (7), 3641-3662 (1998). 
 Relativistic separable dual-space Gaussian pseudopotentials from H to Rn.
 https://doi.org/10.1103/PhysRevB.58.3641

 Lippert, G; Hutter, J; Parrinello, M. 
 MOLECULAR PHYSICS, 92 (3), 477-487 (1997). 
 A hybrid Gaussian and plane wave density functional scheme.
 https://doi.org/10.1080/002689797170220

 Perdew, JP; Burke, K; Ernzerhof, M. 
 PHYSICAL REVIEW LETTERS, 77 (18), 3865-3868 (1996). 
 Generalized gradient approximation made simple.
 https://doi.org/10.1103/PhysRevLett.77.3865

 Goedecker, S; Teter, M; Hutter, J. 
 PHYSICAL REVIEW B, 54 (3), 1703-1710 (1996). 
 Separable dual-space Gaussian pseudopotentials.
 https://doi.org/10.1103/PhysRevB.54.1703


 -------------------------------------------------------------------------------
 -                                                                             -
 -                                T I M I N G                                  -
 -                                                                             -
 -------------------------------------------------------------------------------
 SUBROUTINE                       CALLS  ASD         SELF TIME        TOTAL TIME
                                MAXIMUM       AVERAGE  MAXIMUM  AVERAGE  MAXIMUM
 CP2K                                 1  1.0    0.027    0.043  958.351  958.354
 qs_forces                            1  2.0    0.002    0.003  957.965  957.968
 qs_energies                          1  3.0    0.000    0.000  945.466  945.475
 scf_env_do_scf                       1  4.0    0.000    0.000  937.209  937.452
 scf_env_do_scf_inner_loop           80  5.0    0.004    0.014  937.208  937.451
 qs_scf_new_mos                      80  6.0    0.005    0.012  381.558  382.108
 eigensolver                         80  7.0    0.007    0.011  354.474  354.838
 rebuild_ks_matrix                   81  7.0    0.000    0.000  295.990  296.040
 qs_ks_build_kohn_sham_matrix        81  8.0    0.012    0.015  295.989  296.039
 qs_ks_update_qs_env                 80  6.0    0.001    0.001  288.075  288.124
 qs_rho_update_rho_low               81  6.0    0.001    0.001  252.975  253.007
 calculate_rho_elec                  81  7.0    0.190    0.235  252.975  253.006
 sum_up_and_integrate                81  9.0    0.341    0.414  248.556  248.610
 integrate_v_rspace                  81 10.0    0.003    0.003  248.214  248.296
 grid_collocate_task_list            81  8.0  222.277  228.530  222.277  228.530
 grid_integrate_task_list            81 11.0  216.640  222.505  216.640  222.505
 cp_fm_diag_elpa                     80  8.0    0.001    0.001  207.899  208.430
 cp_fm_diag_elpa_base                80  9.0  204.718  205.461  207.572  207.643
 cp_fm_triangular_multiply          240  8.0  143.616  145.375  143.616  145.375
 pw_transfer                       1620 10.9    0.115    0.158   44.846   45.974
 fft_wrap_pw1pw2                   1458 12.0    0.014    0.019   44.331   45.421
 rs_pw_transfer                     652 10.5    0.007    0.008   39.553   45.402
 fft_wrap_pw1pw2_200                972 13.3    3.984    4.353   42.601   43.547
 qs_vxc_create                       81  9.0    0.003    0.003   41.843   42.070
 xc_vxc_pw_create                    81 10.0    0.742    0.774   41.840   42.068
 fft3d_ps                          1458 14.0   16.123   18.120   32.689   34.146
 density_rs2pw                       81  8.0    0.005    0.006   28.218   33.981
 xc_pw_derive                       486 12.0    0.008    0.009   26.673   27.941
 xc_rho_set_and_dset_create          81 11.0    0.395    0.424   22.575   24.070
 potential_pw2rs                     81 11.0    0.030    0.038   23.581   23.651
 mp_waitany                       23616 12.4   17.146   23.060   17.146   23.060
 rs_pw_transfer_RS2PW_200            83 10.0    5.289    5.958   15.936   21.765
 calculate_dm_sparse                 80  7.0    0.025    0.033   19.639   20.377
 cp_dbcsr_plus_fm_fm_t_native        81  8.0    0.004    0.006   19.580   20.365
 -------------------------------------------------------------------------------

 The number of warnings for this run is : 1
 
 -------------------------------------------------------------------------------
  **** **** ******  **  PROGRAM ENDED AT                 2023-11-26 20:45:25.568
 ***** ** ***  *** **   PROGRAM RAN ON                                     cu054
 **    ****   ******    PROGRAM RAN BY                                     jxzhu
 ***** **    ** ** **   PROGRAM PROCESS ID                                 12206
  **** **  *******  **  PROGRAM STOPPED IN /public/home/jxzhu/tmp_calc/af2075565
                                           805657d94fa4669dad6f4b174b0a4fb/calc/
                                           002200.000/pbc
