 DBCSR| CPU Multiplication driver                                           XSMM
 DBCSR| Multrec recursion limit                                              512
 DBCSR| Multiplication stack size                                           1000
 DBCSR| Maximum elements for images                                    UNLIMITED
 DBCSR| Multiplicative factor virtual images                                   1
 DBCSR| Use multiplication densification                                       T
 DBCSR| Multiplication size stacks                                             3
 DBCSR| Use memory pool for CPU allocation                                     F
 DBCSR| Number of 3D layers                                               SINGLE
 DBCSR| Use MPI memory allocation                                              F
 DBCSR| Use RMA algorithm                                                      F
 DBCSR| Use Communication thread                                               T
 DBCSR| Communication thread load                                             87
 DBCSR| MPI: My node id                                                        0
 DBCSR| MPI: Number of nodes                                                 128
 DBCSR| OMP: Current number of threads                                         1
 DBCSR| OMP: Max number of threads                                             1
 DBCSR| Split modifier for TAS multiplication algorithm                  1.0E+00


  **** **** ******  **  PROGRAM STARTED AT               2023-12-03 00:59:15.465
 ***** ** ***  *** **   PROGRAM STARTED ON                                 cu001
 **    ****   ******    PROGRAM STARTED BY                                 jxzhu
 ***** **    ** ** **   PROGRAM PROCESS ID                                 19304
  **** **  *******  **  PROGRAM STARTED IN /public/home/jxzhu/tmp_calc/2de603fd7
                                           2c9b5ce6e7adcc91794b014b99ccf1b/calc/
                                           002300.000/search_hi.000000

 CP2K| version string:                                       CP2K version 2022.1
 CP2K| source code revision number:                                  git:2caeb6f
 CP2K| cp2kflags: omp libint fftw3 libxc elpa parallel mpi3 scalapack cosma xsmm
 CP2K|             plumed2 spglib mkl sirius libvori libbqb
 CP2K| is freely available from                            https://www.cp2k.org/
 CP2K| Program compiled at                           Mon Jul 3 17:37:06 CST 2023
 CP2K| Program compiled on                                                 mu003
 CP2K| Program compiled for                                                local
 CP2K| Data directory path                             /public/home/jxzhu/basis/
 CP2K| Input file name                                                 input.inp
 
 GLOBAL| Force Environment number                                              1
 GLOBAL| Basis set file name                                        BASIS_MOLOPT
 GLOBAL| Potential file name                                      GTH_POTENTIALS
 GLOBAL| MM Potential file name                                     MM_POTENTIAL
 GLOBAL| Coordinate file name                                          coord.xyz
 GLOBAL| Method name                                                        CP2K
 GLOBAL| Project name                                                       cp2k
 GLOBAL| Run type                                                   ENERGY_FORCE
 GLOBAL| FFT library                                                       FFTW3
 GLOBAL| Diagonalization library                                            ELPA
 GLOBAL| Minimum number of eigenvectors for ELPA usage                        16
 GLOBAL| Orthonormality check for eigenvectors                          DISABLED
 GLOBAL| Matrix multiplication library                                     COSMA
 GLOBAL| All-to-all communication in single precision                          F
 GLOBAL| FFTs using library dependent lengths                                  T
 GLOBAL| Grid backend                                                       AUTO
 GLOBAL| Global print level                                               MEDIUM
 GLOBAL| MPI I/O enabled                                                       T
 GLOBAL| Total number of message passing processes                           128
 GLOBAL| Number of threads for this process                                    1
 GLOBAL| This output is from process                                           0
 GLOBAL| Stack size for threads created by OpenMP (OMP_STACKSIZE)        default
 GLOBAL| CPU model name                 Intel(R) Xeon(R) Gold 6338 CPU @ 2.00GHz
 GLOBAL| CPUID                                                              1003

 MEMORY| system memory details [Kb]
 MEMORY|                        rank 0           min           max       average
 MEMORY| MemTotal            263619172     263619172     263619172     263619172
 MEMORY| MemFree             218970836     215871020     218972076     217421305
 MEMORY| Buffers                    20            20            36            28
 MEMORY| Cached                1498996        775236       1498996       1137116
 MEMORY| Slab                  1381296       1381296       1420156       1400726
 MEMORY| SReclaimable           241432        230000        241432        235716
 MEMORY| MemLikelyFree       220711284     216876292     220712524     218794165


 *** Fundamental physical constants (SI units) ***

 *** Literature: B. J. Mohr and B. N. Taylor,
 ***             CODATA recommended values of the fundamental physical
 ***             constants: 2006, Web Version 5.1
 ***             http://physics.nist.gov/constants

 Speed of light in vacuum [m/s]                             2.99792458000000E+08
 Magnetic constant or permeability of vacuum [N/A**2]       1.25663706143592E-06
 Electric constant or permittivity of vacuum [F/m]          8.85418781762039E-12
 Planck constant (h) [J*s]                                  6.62606896000000E-34
 Planck constant (h-bar) [J*s]                              1.05457162825177E-34
 Elementary charge [C]                                      1.60217648700000E-19
 Electron mass [kg]                                         9.10938215000000E-31
 Electron g factor [ ]                                     -2.00231930436220E+00
 Proton mass [kg]                                           1.67262163700000E-27
 Fine-structure constant                                    7.29735253760000E-03
 Rydberg constant [1/m]                                     1.09737315685270E+07
 Avogadro constant [1/mol]                                  6.02214179000000E+23
 Boltzmann constant [J/K]                                   1.38065040000000E-23
 Atomic mass unit [kg]                                      1.66053878200000E-27
 Bohr radius [m]                                            5.29177208590000E-11

 *** Conversion factors ***

 [u] -> [a.u.]                                              1.82288848426455E+03
 [Angstrom] -> [Bohr] = [a.u.]                              1.88972613288564E+00
 [a.u.] = [Bohr] -> [Angstrom]                              5.29177208590000E-01
 [a.u.] -> [s]                                              2.41888432650478E-17
 [a.u.] -> [fs]                                             2.41888432650478E-02
 [a.u.] -> [J]                                              4.35974393937059E-18
 [a.u.] -> [N]                                              8.23872205491840E-08
 [a.u.] -> [K]                                              3.15774647902944E+05
 [a.u.] -> [kJ/mol]                                         2.62549961709828E+03
 [a.u.] -> [kcal/mol]                                       6.27509468713739E+02
 [a.u.] -> [Pa]                                             2.94210107994716E+13
 [a.u.] -> [bar]                                            2.94210107994716E+08
 [a.u.] -> [atm]                                            2.90362800883016E+08
 [a.u.] -> [eV]                                             2.72113838565563E+01
 [a.u.] -> [Hz]                                             6.57968392072181E+15
 [a.u.] -> [1/cm] (wave numbers)                            2.19474631370540E+05
 [a.u./Bohr**2] -> [1/cm]                                   5.14048714338585E+03
 

 CELL_TOP| Volume [angstrom^3]:                                     17614.982639
 CELL_TOP| Vector a [angstrom    16.869     0.000     0.000   |a| =    16.869000
 CELL_TOP| Vector b [angstrom    -8.434    14.609     0.000   |b| =    16.869015
 CELL_TOP| Vector c [angstrom     0.000     0.000    71.478   |c| =    71.478000
 CELL_TOP| Angle (b,c), alpha [degree]:                                90.000000
 CELL_TOP| Angle (a,c), beta  [degree]:                                90.000000
 CELL_TOP| Angle (a,b), gamma [degree]:                               119.999970
 CELL_TOP| Numerically orthorhombic:                                          NO
 
 GENERATE|  Preliminary Number of Bonds generated:                             0
 GENERATE|  Achieved consistency in connectivity generation.

 CELL| Volume [angstrom^3]:                                         17614.982639
 CELL| Vector a [angstrom]:      16.869     0.000     0.000   |a| =    16.869000
 CELL| Vector b [angstrom]:      -8.434    14.609     0.000   |b| =    16.869015
 CELL| Vector c [angstrom]:       0.000     0.000    71.478   |c| =    71.478000
 CELL| Angle (b,c), alpha [degree]:                                    90.000000
 CELL| Angle (a,c), beta  [degree]:                                    90.000000
 CELL| Angle (a,b), gamma [degree]:                                   119.999970
 CELL| Numerically orthorhombic:                                              NO

 CELL_REF| Volume [angstrom^3]:                                     17614.982639
 CELL_REF| Vector a [angstrom    16.869     0.000     0.000   |a| =    16.869000
 CELL_REF| Vector b [angstrom    -8.434    14.609     0.000   |b| =    16.869015
 CELL_REF| Vector c [angstrom     0.000     0.000    71.478   |c| =    71.478000
 CELL_REF| Angle (b,c), alpha [degree]:                                90.000000
 CELL_REF| Angle (a,c), beta  [degree]:                                90.000000
 CELL_REF| Angle (a,b), gamma [degree]:                               119.999970
 CELL_REF| Numerically orthorhombic:                                          NO

 *******************************************************************************
 *******************************************************************************
 **                                                                           **
 **     #####                         ##              ##                      **
 **    ##   ##            ##          ##              ##                      **
 **   ##     ##                       ##            ######                    **
 **   ##     ##  ##   ##  ##   #####  ##  ##   ####   ##    #####    #####    **
 **   ##     ##  ##   ##  ##  ##      ## ##   ##      ##   ##   ##  ##   ##   **
 **   ##  ## ##  ##   ##  ##  ##      ####     ###    ##   ######   ######    **
 **    ##  ###   ##   ##  ##  ##      ## ##      ##   ##   ##       ##        **
 **     #######   #####   ##   #####  ##  ##  ####    ##    #####   ##        **
 **           ##                                                    ##        **
 **                                                                           **
 **                                                ... make the atoms dance   **
 **                                                                           **
 **            Copyright (C) by CP2K developers group (2000-2022)             **
 **                      J. Chem. Phys. 152, 194103 (2020)                    **
 **                                                                           **
 *******************************************************************************

 DFT| Spin restricted Kohn-Sham (RKS) calculation                            RKS
 DFT| Multiplicity                                                             1
 DFT| Number of spin states                                                    1
 DFT| Charge                                                                   0
 DFT| Self-interaction correction (SIC)                                       NO
 DFT| Cutoffs: density                                              1.000000E-10
 DFT|          gradient                                             1.000000E-10
 DFT|          tau                                                  1.000000E-10
 DFT|          cutoff_smoothing_range                               0.000000E+00
 DFT| XC density smoothing                                                  NONE
 DFT| XC derivatives                                                          PW

 FUNCTIONAL| PBE:
 FUNCTIONAL| J.P.Perdew, K.Burke, M.Ernzerhof, Phys. Rev. Letter, vol. 77, n 18,
 FUNCTIONAL|  pp. 3865-3868, (1996){spin unpolarized}                           

 vdW POTENTIAL|                                                   Pair Potential
 vdW POTENTIAL|          DFT-D3 (Version 3.1)
 vdW POTENTIAL|          Potential Form: S. Grimme et al, JCP 132: 154104 (2010)
 vdW POTENTIAL|          Zero Damping
 vdW POTENTIAL|          Cutoff Radius [Bohr]:                             20.00
 vdW POTENTIAL|          s6 Scaling Factor:                               1.0000
 vdW POTENTIAL|          sr6 Scaling Factor:                              1.2170
 vdW POTENTIAL|          s8 Scaling Factor:                               0.7220
 vdW POTENTIAL|          Cutoff for CN calculation:                   0.1000E-05

 QS| Method:                                                                 GPW
 QS| Density plane wave grid type                        NON-SPHERICAL FULLSPACE
 QS| Number of grid levels:                                                    4
 QS| Density cutoff [a.u.]:                                                200.0
 QS| Multi grid cutoff [a.u.]: 1) grid level                               200.0
 QS|                           2) grid level                                66.7
 QS|                           3) grid level                                22.2
 QS|                           4) grid level                                 7.4
 QS| Grid level progression factor:                                          3.0
 QS| Relative density cutoff [a.u.]:                                        20.0
 QS| Interaction thresholds: eps_pgf_orb:                                3.2E-07
 QS|                         eps_filter_matrix:                          0.0E+00
 QS|                         eps_core_charge:                            1.0E-15
 QS|                         eps_rho_gspace:                             1.0E-13
 QS|                         eps_rho_rspace:                             1.0E-13
 QS|                         eps_gvg_rspace:                             3.2E-07
 QS|                         eps_ppl:                                    1.0E-02
 QS|                         eps_ppnl:                                   3.2E-09


 ATOMIC KIND INFORMATION

  1. Atomic kind: O                                     Number of atoms:     102

     Orbital Basis Set                                        DZVP-MOLOPT-SR-GTH

       Number of orbital shell sets:                                           1
       Number of orbital shells:                                               5
       Number of primitive Cartesian functions:                                5
       Number of Cartesian basis functions:                                   14
       Number of spherical basis functions:                                   13
       Norm type:                                                              2

       Normalised Cartesian orbitals:

                        Set   Shell   Orbital            Exponent    Coefficient

                          1       1    2s               10.389228       0.396646
                                                         3.849621       0.208811
                                                         1.388401      -0.301641
                                                         0.496955      -0.274061
                                                         0.162492      -0.033677

                          1       2    3s               10.389228       0.303673
                                                         3.849621       0.240943
                                                         1.388401      -0.313066
                                                         0.496955      -0.043055
                                                         0.162492       0.213991

                          1       3    3px              10.389228      -1.530415
                                                         3.849621      -1.371928
                                                         1.388401      -0.761951
                                                         0.496955      -0.253695
                                                         0.162492      -0.035541
                          1       3    3py              10.389228      -1.530415
                                                         3.849621      -1.371928
                                                         1.388401      -0.761951
                                                         0.496955      -0.253695
                                                         0.162492      -0.035541
                          1       3    3pz              10.389228      -1.530415
                                                         3.849621      -1.371928
                                                         1.388401      -0.761951
                                                         0.496955      -0.253695
                                                         0.162492      -0.035541

                          1       4    4px              10.389228      -0.565392
                                                         3.849621      -0.038231
                                                         1.388401      -0.382373
                                                         0.496955       0.179070
                                                         0.162492       0.122714
                          1       4    4py              10.389228      -0.565392
                                                         3.849621      -0.038231
                                                         1.388401      -0.382373
                                                         0.496955       0.179070
                                                         0.162492       0.122714
                          1       4    4pz              10.389228      -0.565392
                                                         3.849621      -0.038231
                                                         1.388401      -0.382373
                                                         0.496955       0.179070
                                                         0.162492       0.122714

                          1       5    4dx2             10.389228       1.867377
                                                         3.849621       0.670994
                                                         1.388401       1.353441
                                                         0.496955       0.273538
                                                         0.162492       0.006620
                          1       5    4dxy             10.389228       3.234392
                                                         3.849621       1.162195
                                                         1.388401       2.344229
                                                         0.496955       0.473781
                                                         0.162492       0.011466
                          1       5    4dxz             10.389228       3.234392
                                                         3.849621       1.162195
                                                         1.388401       2.344229
                                                         0.496955       0.473781
                                                         0.162492       0.011466
                          1       5    4dy2             10.389228       1.867377
                                                         3.849621       0.670994
                                                         1.388401       1.353441
                                                         0.496955       0.273538
                                                         0.162492       0.006620
                          1       5    4dyz             10.389228       3.234392
                                                         3.849621       1.162195
                                                         1.388401       2.344229
                                                         0.496955       0.473781
                                                         0.162492       0.011466
                          1       5    4dz2             10.389228       1.867377
                                                         3.849621       0.670994
                                                         1.388401       1.353441
                                                         0.496955       0.273538
                                                         0.162492       0.006620

       Atomic covalent radius [Angstrom]:                                  0.730

       Atomic van der Waals radius [Angstrom]:                             1.520

     GTH Potential information for                                    GTH-PBE-q6

       Description:                       Goedecker-Teter-Hutter pseudopotential
                                           Goedecker et al., PRB 54, 1703 (1996)
                                          Hartwigsen et al., PRB 58, 3641 (1998)
                                                      Krack, TCA 114, 145 (2005)

       Gaussian exponent of the core charge distribution:               8.360253
       Electronic configuration (s p d ...):                               2   4

       Parameters of the local part of the GTH pseudopotential:

                          rloc        C1          C2          C3          C4
                        0.244554  -16.667215    2.487311

       Parameters of the non-local part of the GTH pseudopotential:

                   l      r(l)      h(i,j,l)

                   0    0.220956   18.337458
                   1    0.211332

  2. Atomic kind: H                                     Number of atoms:     204

     Orbital Basis Set                                        DZVP-MOLOPT-SR-GTH

       Number of orbital shell sets:                                           1
       Number of orbital shells:                                               3
       Number of primitive Cartesian functions:                                5
       Number of Cartesian basis functions:                                    5
       Number of spherical basis functions:                                    5
       Norm type:                                                              2

       Normalised Cartesian orbitals:

                        Set   Shell   Orbital            Exponent    Coefficient

                          1       1    2s               10.068468      -0.133023
                                                         2.680223      -0.177618
                                                         0.791502      -0.258419
                                                         0.239116      -0.107525
                                                         0.082193      -0.014019

                          1       2    3s               10.068468       0.344673
                                                         2.680223       1.819821
                                                         0.791502      -0.999069
                                                         0.239116       0.017430
                                                         0.082193       0.082660

                          1       3    3px              10.068468       0.155326
                                                         2.680223       0.367157
                                                         0.791502       0.311480
                                                         0.239116       0.080105
                                                         0.082193       0.033440
                          1       3    3py              10.068468       0.155326
                                                         2.680223       0.367157
                                                         0.791502       0.311480
                                                         0.239116       0.080105
                                                         0.082193       0.033440
                          1       3    3pz              10.068468       0.155326
                                                         2.680223       0.367157
                                                         0.791502       0.311480
                                                         0.239116       0.080105
                                                         0.082193       0.033440

       Atomic covalent radius [Angstrom]:                                  0.320

       Atomic van der Waals radius [Angstrom]:                             1.090

     GTH Potential information for                                    GTH-PBE-q1

       Description:                       Goedecker-Teter-Hutter pseudopotential
                                           Goedecker et al., PRB 54, 1703 (1996)
                                          Hartwigsen et al., PRB 58, 3641 (1998)
                                                      Krack, TCA 114, 145 (2005)

       Gaussian exponent of the core charge distribution:              12.500000
       Electronic configuration (s p d ...):                                   1

       Parameters of the local part of the GTH pseudopotential:

                          rloc        C1          C2          C3          C4
                        0.200000   -4.178900    0.724463

  3. Atomic kind: Pt                                    Number of atoms:     216

     Orbital Basis Set                      DZVP-A5-Q10-323-MOL-T1-DERIVED_SET-1

       Number of orbital shell sets:                                           1
       Number of orbital shells:                                               6
       Number of primitive Cartesian functions:                                5
       Number of Cartesian basis functions:                                   23
       Number of spherical basis functions:                                   20
       Norm type:                                                              2

       Normalised Cartesian orbitals:

                        Set   Shell   Orbital            Exponent    Coefficient

                          1       1    2s                2.521825       0.177473
                                                         1.453920      -0.063399
                                                         0.614053      -0.407089
                                                         0.232656       0.262254
                                                         0.074788       0.047371

                          1       2    3s                2.521825      -0.049056
                                                         1.453920       0.044904
                                                         0.614053      -0.009756
                                                         0.232656      -0.144709
                                                         0.074788       0.144085

                          1       3    3px               2.521825      -0.317572
                                                         1.453920       0.534826
                                                         0.614053      -0.489458
                                                         0.232656       0.245631
                                                         0.074788       0.018221
                          1       3    3py               2.521825      -0.317572
                                                         1.453920       0.534826
                                                         0.614053      -0.489458
                                                         0.232656       0.245631
                                                         0.074788       0.018221
                          1       3    3pz               2.521825      -0.317572
                                                         1.453920       0.534826
                                                         0.614053      -0.489458
                                                         0.232656       0.245631
                                                         0.074788       0.018221

                          1       4    4dx2              2.521825       3.008522
                                                         1.453920      -1.224251
                                                         0.614053       0.225691
                                                         0.232656       0.125144
                                                         0.074788      -0.015348
                          1       4    4dxy              2.521825       5.210912
                                                         1.453920      -2.120465
                                                         0.614053       0.390909
                                                         0.232656       0.216756
                                                         0.074788      -0.026584
                          1       4    4dxz              2.521825       5.210912
                                                         1.453920      -2.120465
                                                         0.614053       0.390909
                                                         0.232656       0.216756
                                                         0.074788      -0.026584
                          1       4    4dy2              2.521825       3.008522
                                                         1.453920      -1.224251
                                                         0.614053       0.225691
                                                         0.232656       0.125144
                                                         0.074788      -0.015348
                          1       4    4dyz              2.521825       5.210912
                                                         1.453920      -2.120465
                                                         0.614053       0.390909
                                                         0.232656       0.216756
                                                         0.074788      -0.026584
                          1       4    4dz2              2.521825       3.008522
                                                         1.453920      -1.224251
                                                         0.614053       0.225691
                                                         0.232656       0.125144
                                                         0.074788      -0.015348

                          1       5    5dx2              2.521825       0.698026
                                                         1.453920      -1.511486
                                                         0.614053      -0.335394
                                                         0.232656      -0.025564
                                                         0.074788      -0.002699
                          1       5    5dxy              2.521825       1.209017
                                                         1.453920      -2.617970
                                                         0.614053      -0.580920
                                                         0.232656      -0.044277
                                                         0.074788      -0.004674
                          1       5    5dxz              2.521825       1.209017
                                                         1.453920      -2.617970
                                                         0.614053      -0.580920
                                                         0.232656      -0.044277
                                                         0.074788      -0.004674
                          1       5    5dy2              2.521825       0.698026
                                                         1.453920      -1.511486
                                                         0.614053      -0.335394
                                                         0.232656      -0.025564
                                                         0.074788      -0.002699
                          1       5    5dyz              2.521825       1.209017
                                                         1.453920      -2.617970
                                                         0.614053      -0.580920
                                                         0.232656      -0.044277
                                                         0.074788      -0.004674
                          1       5    5dz2              2.521825       0.698026
                                                         1.453920      -1.511486
                                                         0.614053      -0.335394
                                                         0.232656      -0.025564
                                                         0.074788      -0.002699

                          1       6    6dx2              2.521825       0.831079
                                                         1.453920      -0.709226
                                                         0.614053      -0.137351
                                                         0.232656       0.068642
                                                         0.074788       0.011745
                          1       6    6dxy              2.521825       1.439472
                                                         1.453920      -1.228415
                                                         0.614053      -0.237899
                                                         0.232656       0.118891
                                                         0.074788       0.020343
                          1       6    6dxz              2.521825       1.439472
                                                         1.453920      -1.228415
                                                         0.614053      -0.237899
                                                         0.232656       0.118891
                                                         0.074788       0.020343
                          1       6    6dy2              2.521825       0.831079
                                                         1.453920      -0.709226
                                                         0.614053      -0.137351
                                                         0.232656       0.068642
                                                         0.074788       0.011745
                          1       6    6dyz              2.521825       1.439472
                                                         1.453920      -1.228415
                                                         0.614053      -0.237899
                                                         0.232656       0.118891
                                                         0.074788       0.020343
                          1       6    6dz2              2.521825       0.831079
                                                         1.453920      -0.709226
                                                         0.614053      -0.137351
                                                         0.232656       0.068642
                                                         0.074788       0.011745

       Atomic covalent radius [Angstrom]:                                  1.300

       Atomic van der Waals radius [Angstrom]:                             1.750

     GTH Potential information for                                   GTH-PBE-q10

       Description:                       Goedecker-Teter-Hutter pseudopotential
                                           Goedecker et al., PRB 54, 1703 (1996)
                                          Hartwigsen et al., PRB 58, 3641 (1998)
                                                      Krack, TCA 114, 145 (2005)

       Gaussian exponent of the core charge distribution:               1.317676
       Electronic configuration (s p d ...):                           1   0   9

       Parameters of the local part of the GTH pseudopotential:

                          rloc        C1          C2          C3          C4
                        0.616000   11.313635

       Parameters of the non-local part of the GTH pseudopotential:

                   l      r(l)      h(i,j,l)

                   0    0.550904    4.733491   -1.784594
                                   -1.784594    2.303901
                   1    0.674138    2.534798   -1.778066
                                   -1.778066    2.103836
                   2    0.457392   -7.264011    2.558665
                                    2.558665   -2.901253


 MOLECULE KIND INFORMATION


 All atoms are their own molecule, skipping detailed information


 TOTAL NUMBERS AND MAXIMUM NUMBERS

  Total number of            - Atomic kinds:                                   3
                             - Atoms:                                        522
                             - Shell sets:                                   522
                             - Shells:                                      2418
                             - Primitive Cartesian functions:               2610
                             - Cartesian basis functions:                   7416
                             - Spherical basis functions:                   6666

  Maximum angular momentum of- Orbital basis functions:                        2
                             - Local part of the GTH pseudopotential:          2
                             - Non-local part of the GTH pseudopotential:      4


 MODULE QUICKSTEP:  ATOMIC COORDINATES IN angstrom

 Atom  Kind  Element       X           Y           Z          Z(eff)       Mass
    1   1 O    8      14.770001  -31.990002   37.778001       6.0000     15.9994
    2   2 H    1      14.970001  -31.090002   38.148000       1.0000      1.0079
    3   2 H    1      13.820001  -32.010002   37.558000       1.0000      1.0079
    4   1 O    8     -15.110001   14.260001   32.318000       6.0000     15.9994
    5   2 H    1     -16.000000   14.080001   32.697999       1.0000      1.0079
    6   2 H    1     -15.240001   14.400001   31.367999       1.0000      1.0079
    7   1 O    8      22.940002   18.590000   37.727998       6.0000     15.9994
    8   2 H    1      22.860001   17.850000   37.097999       1.0000      1.0079
    9   2 H    1      22.030001   18.800001   38.027999       1.0000      1.0079
   10   1 O    8     -25.860003  -18.770000   32.017999       6.0000     15.9994
   11   2 H    1     -25.510002  -19.670002   32.207998       1.0000      1.0079
   12   2 H    1     -25.200003  -18.070000   32.017999       1.0000      1.0079
   13   1 O    8      -5.570001  -10.980000   36.117999       6.0000     15.9994
   14   2 H    1      -6.540000  -11.110001   36.247999       1.0000      1.0079
   15   2 H    1      -5.190001  -10.620001   36.937999       1.0000      1.0079
   16   1 O    8      -0.280000   20.730001   34.197999       6.0000     15.9994
   17   2 H    1      -1.140000   20.950001   33.687999       1.0000      1.0079
   18   2 H    1       0.420000   21.280001   33.677999       1.0000      1.0079
   19   1 O    8     -15.550001   22.780001   32.888000       6.0000     15.9994
   20   2 H    1     -14.720001   23.310001   33.157998       1.0000      1.0079
   21   2 H    1     -15.590000   22.650002   31.927999       1.0000      1.0079
   22   1 O    8       9.450001   -9.390000   33.008001       6.0000     15.9994
   23   2 H    1       9.470000  -10.310000   32.707998       1.0000      1.0079
   24   2 H    1       8.570001   -8.900001   32.897998       1.0000      1.0079
   25   1 O    8     -19.670002   42.860001   38.138000       6.0000     15.9994
   26   2 H    1     -19.660000   43.840004   38.347999       1.0000      1.0079
   27   2 H    1      -3.420000   42.850002   37.348001       1.0000      1.0079
   28   1 O    8      -5.640000   -7.600000   37.118001       6.0000     15.9994
   29   2 H    1     -13.530001    7.810000   37.148000       1.0000      1.0079
   30   2 H    1      -5.240001   -8.200001   37.748000       1.0000      1.0079
   31   1 O    8      -2.440000   17.080000   33.427999       6.0000     15.9994
   32   2 H    1      -1.500000   17.480000   33.357999       1.0000      1.0079
   33   2 H    1      -3.140000   17.840000   33.487998       1.0000      1.0079
   34   1 O    8     -27.150002   -2.070000   29.968000       6.0000     15.9994
   35   2 H    1     -27.299999   -2.840000   29.337999       1.0000      1.0079
   36   2 H    1     -27.870003   -1.390000   29.777997       1.0000      1.0079
   37   1 O    8     -26.280001   14.320001   29.878000       6.0000     15.9994
   38   2 H    1     -35.130001   29.040001   28.997999       1.0000      1.0079
   39   2 H    1     -25.400002   13.810000   29.808000       1.0000      1.0079
   40   1 O    8     -11.780001    1.720000   38.747999       6.0000     15.9994
   41   2 H    1     -11.590000    2.100000   37.857999       1.0000      1.0079
   42   2 H    1     -11.220001    2.240000   39.378000       1.0000      1.0079
   43   1 O    8     -34.070000   13.690001   33.767999       6.0000     15.9994
   44   2 H    1     -34.900002   14.070001   33.357999       1.0000      1.0079
   45   2 H    1     -34.030003   14.190001   34.607999       1.0000      1.0079
   46   1 O    8     -13.810000    0.540000   33.757999       6.0000     15.9994
   47   2 H    1     -12.940001    0.830000   33.468000       1.0000      1.0079
   48   2 H    1     -13.850001    0.700000   34.737998       1.0000      1.0079
   49   1 O    8     -33.610001   17.730001   32.988000       6.0000     15.9994
   50   2 H    1     -33.330002   18.560001   33.347999       1.0000      1.0079
   51   2 H    1     -33.350002   17.840000   31.977998       1.0000      1.0079
   52   1 O    8      -8.290001   -3.460000   39.367999       6.0000     15.9994
   53   2 H    1      -8.460000   -2.880000   38.578000       1.0000      1.0079
   54   2 H    1      -7.300000   -3.570000   39.388000       1.0000      1.0079
   55   1 O    8      37.180000   -4.990000   33.937999       6.0000     15.9994
   56   2 H    1      37.660004   -4.400000   33.268001       1.0000      1.0079
   57   2 H    1      36.950001   -4.390000   34.658000       1.0000      1.0079
   58   1 O    8       3.810000   -7.710000   36.098001       6.0000     15.9994
   59   2 H    1       3.110000   -6.990001   36.238000       1.0000      1.0079
   60   2 H    1       4.600000   -7.090001   36.087999       1.0000      1.0079
   61   1 O    8     -50.590000    0.350000   36.937999       6.0000     15.9994
   62   2 H    1     -33.960003   -0.390000   36.328000       1.0000      1.0079
   63   2 H    1     -33.780003   -0.090000   37.827998       1.0000      1.0079
   64   1 O    8       6.350000  -19.020000   34.418001       6.0000     15.9994
   65   2 H    1       5.620000  -19.660000   34.427999       1.0000      1.0079
   66   2 H    1       6.450000  -18.840000   33.508001       1.0000      1.0079
   67   1 O    8      -7.260000   24.750002   30.137998       6.0000     15.9994
   68   2 H    1      -8.200001   24.560001   30.227998       1.0000      1.0079
   69   2 H    1      -6.800000   24.860001   30.997999       1.0000      1.0079
   70   1 O    8       6.200000   -6.380000   35.838001       6.0000     15.9994
   71   2 H    1       6.430000   -5.820000   36.617997       1.0000      1.0079
   72   2 H    1       6.620001   -7.260000   35.887998       1.0000      1.0079
   73   1 O    8     -19.270000   14.630001   32.628000       6.0000     15.9994
   74   2 H    1     -19.240002   14.630001   31.638000       1.0000      1.0079
   75   2 H    1     -19.340002   15.650001   32.837999       1.0000      1.0079
   76   1 O    8      23.860001    6.900001   30.128000       6.0000     15.9994
   77   2 H    1      23.290001    7.580000   29.648000       1.0000      1.0079
   78   2 H    1      23.730001    6.030001   29.697999       1.0000      1.0079
   79   1 O    8      36.430000   10.080000   32.318000       6.0000     15.9994
   80   2 H    1      35.730003    9.860001   32.927999       1.0000      1.0079
   81   2 H    1      36.770004   11.000000   32.527999       1.0000      1.0079
   82   1 O    8       8.110001   35.680000   38.708000       6.0000     15.9994
   83   2 H    1       8.410000   35.020000   39.388000       1.0000      1.0079
   84   2 H    1      25.520000   36.470001   38.917999       1.0000      1.0079
   85   1 O    8     -13.340001   33.250000   30.508001       6.0000     15.9994
   86   2 H    1     -13.260001   33.460003   31.477998       1.0000      1.0079
   87   2 H    1     -13.990001   33.860001   29.997999       1.0000      1.0079
   88   1 O    8       1.310000   -1.440000   29.847997       6.0000     15.9994
   89   2 H    1       1.900000   -1.220000   30.578000       1.0000      1.0079
   90   2 H    1       1.710000   -1.050000   29.017999       1.0000      1.0079
   91   1 O    8      -1.370000    6.480000   32.718000       6.0000     15.9994
   92   2 H    1      -9.960001   22.000000   32.997999       1.0000      1.0079
   93   2 H    1      -1.680000    6.430000   31.828000       1.0000      1.0079
   94   1 O    8      18.580000   -4.250000   29.438001       6.0000     15.9994
   95   2 H    1      19.570002   -4.460000   29.648000       1.0000      1.0079
   96   2 H    1      18.630001   -3.250000   29.637998       1.0000      1.0079
   97   1 O    8       3.600000   -9.280001   38.097999       6.0000     15.9994
   98   2 H    1       2.810000   -9.840000   38.017999       1.0000      1.0079
   99   2 H    1       3.710000   -8.610001   37.337999       1.0000      1.0079
  100   1 O    8      17.150000    3.180000   35.827998       6.0000     15.9994
  101   2 H    1      17.270000    3.050000   34.848001       1.0000      1.0079
  102   2 H    1      16.910002    4.180000   35.898000       1.0000      1.0079
  103   1 O    8      -8.860001   -1.760000   37.237998       6.0000     15.9994
  104   2 H    1      -9.790000   -1.780000   37.617999       1.0000      1.0079
  105   2 H    1      -8.850000   -0.800000   36.828000       1.0000      1.0079
  106   1 O    8       2.920000  -18.670002   39.667999       6.0000     15.9994
  107   2 H    1       3.300000  -19.200001   38.878000       1.0000      1.0079
  108   2 H    1       2.860000  -19.450001   40.338001       1.0000      1.0079
  109   1 O    8       5.600000  -10.520000   33.197999       6.0000     15.9994
  110   2 H    1       4.800000   -9.940001   33.327998       1.0000      1.0079
  111   2 H    1       6.380000   -9.870001   33.027999       1.0000      1.0079
  112   1 O    8     -10.400001  -13.200001   33.697999       6.0000     15.9994
  113   2 H    1     -10.810001  -12.310000   33.427999       1.0000      1.0079
  114   2 H    1      -9.470000  -13.080001   33.498000       1.0000      1.0079
  115   1 O    8      33.660004   -1.740000   34.518001       6.0000     15.9994
  116   2 H    1      33.890003   -2.530000   35.027999       1.0000      1.0079
  117   2 H    1      32.830002   -1.950000   34.037999       1.0000      1.0079
  118   1 O    8     -31.620003   23.420000   36.407998       6.0000     15.9994
  119   2 H    1     -15.590000   23.310001   35.887998       1.0000      1.0079
  120   2 H    1     -31.870001   23.400002   37.337999       1.0000      1.0079
  121   1 O    8       6.700000   10.870000   29.697999       6.0000     15.9994
  122   2 H    1       6.130000   11.650001   29.907998       1.0000      1.0079
  123   2 H    1       7.350000   10.790000   30.457998       1.0000      1.0079
  124   1 O    8      -0.470000   23.130001   35.898000       6.0000     15.9994
  125   2 H    1      -0.430000   22.320002   35.267999       1.0000      1.0079
  126   2 H    1      -1.000000   23.770000   35.337999       1.0000      1.0079
  127   1 O    8     -20.490000   14.920001   30.048002       6.0000     15.9994
  128   2 H    1     -21.320002   15.440001   30.378000       1.0000      1.0079
  129   2 H    1     -20.480001   15.190001   29.087999       1.0000      1.0079
  130   1 O    8       1.890000   -9.070001   29.078000       6.0000     15.9994
  131   2 H    1       1.330000   -9.760000   29.587999       1.0000      1.0079
  132   2 H    1       1.520000   -8.220000   29.438001       1.0000      1.0079
  133   1 O    8      27.650002  -16.370001   38.898000       6.0000     15.9994
  134   2 H    1      28.400002  -16.930000   39.347999       1.0000      1.0079
  135   2 H    1      26.920002  -16.570000   39.537999       1.0000      1.0079
  136   1 O    8     -18.880001   47.910004   29.747999       6.0000     15.9994
  137   2 H    1     -19.830000   47.880001   29.997999       1.0000      1.0079
  138   2 H    1     -18.960001   47.550003   28.898000       1.0000      1.0079
  139   1 O    8     -13.690001  -15.820000   39.728000       6.0000     15.9994
  140   2 H    1     -13.180000  -15.660001   38.878000       1.0000      1.0079
  141   2 H    1     -13.670001  -16.790001   39.767999       1.0000      1.0079
  142   1 O    8      12.710000   29.780003   30.077997       6.0000     15.9994
  143   2 H    1      21.620003   16.020000   30.328000       1.0000      1.0079
  144   2 H    1      -3.910000   29.590000   29.128000       1.0000      1.0079
  145   1 O    8      -3.970000   -6.370000   33.438001       6.0000     15.9994
  146   2 H    1      -4.610000   -5.810000   32.918001       1.0000      1.0079
  147   2 H    1      -4.620000   -6.870000   33.977998       1.0000      1.0079
  148   1 O    8       6.500000   -3.290000   34.667999       6.0000     15.9994
  149   2 H    1       6.840000   -2.380000   34.427999       1.0000      1.0079
  150   2 H    1       5.600000   -3.190000   34.947999       1.0000      1.0079
  151   1 O    8      -5.980001   21.360001   34.477998       6.0000     15.9994
  152   2 H    1      -6.690001   20.810001   34.017999       1.0000      1.0079
  153   2 H    1      -5.900001   21.170002   35.447999       1.0000      1.0079
  154   1 O    8     -34.190002    2.370000   30.247999       6.0000     15.9994
  155   2 H    1     -34.250000    1.440000   29.977998       1.0000      1.0079
  156   2 H    1     -33.740002    2.570000   29.337999       1.0000      1.0079
  157   1 O    8     -14.530001  -13.130001   35.727998       6.0000     15.9994
  158   2 H    1     -13.760000  -13.640001   36.168001       1.0000      1.0079
  159   2 H    1     -14.260001  -12.930001   34.807998       1.0000      1.0079
  160   1 O    8      -3.350000   -5.940001   29.787999       6.0000     15.9994
  161   2 H    1      -3.820000   -5.800000   28.947999       1.0000      1.0079
  162   2 H    1      -2.860000   -5.090000   29.828000       1.0000      1.0079
  163   1 O    8      -3.360000  -20.450001   39.818000       6.0000     15.9994
  164   2 H    1      -3.070000  -20.760002   40.708000       1.0000      1.0079
  165   2 H    1      -2.550000  -20.440002   39.277999       1.0000      1.0079
  166   1 O    8      16.390001   19.580000   36.647998       6.0000     15.9994
  167   2 H    1      16.570000   19.970001   35.777999       1.0000      1.0079
  168   2 H    1      16.270000   20.330000   37.328000       1.0000      1.0079
  169   1 O    8      21.270000   49.080006   29.148000       6.0000     15.9994
  170   2 H    1      20.310001   49.130001   29.168001       1.0000      1.0079
  171   2 H    1      21.490002   48.160004   29.407998       1.0000      1.0079
  172   1 O    8      12.400000   -2.600000   35.998000       6.0000     15.9994
  173   2 H    1      12.490001   -2.270000   35.067998       1.0000      1.0079
  174   2 H    1      11.450001   -2.790000   35.998000       1.0000      1.0079
  175   1 O    8     -16.600000    6.720000   38.368001       6.0000     15.9994
  176   2 H    1     -15.720000    6.920000   38.017999       1.0000      1.0079
  177   2 H    1     -16.570000    6.320000   39.287999       1.0000      1.0079
  178   1 O    8      -8.650001    0.830000   36.308000       6.0000     15.9994
  179   2 H    1      -9.300001    1.570000   36.417999       1.0000      1.0079
  180   2 H    1      -7.790000    1.240000   36.057998       1.0000      1.0079
  181   1 O    8     -18.130001    6.230001   29.968000       6.0000     15.9994
  182   2 H    1     -18.930000    6.050000   29.387998       1.0000      1.0079
  183   2 H    1     -18.150002    7.200000   30.037999       1.0000      1.0079
  184   1 O    8      14.440001   20.960003   32.578000       6.0000     15.9994
  185   2 H    1      13.800001   21.770000   32.718000       1.0000      1.0079
  186   2 H    1      23.170002    6.450000   31.668001       1.0000      1.0079
  187   1 O    8       0.630000   18.050001   30.128000       6.0000     15.9994
  188   2 H    1      -0.240000   18.100000   29.738000       1.0000      1.0079
  189   2 H    1       0.990000   17.150000   29.957998       1.0000      1.0079
  190   1 O    8     -12.330000   12.530001   29.927999       6.0000     15.9994
  191   2 H    1     -13.250000   12.120000   30.118001       1.0000      1.0079
  192   2 H    1     -12.260000   13.530001   30.258001       1.0000      1.0079
  193   1 O    8      23.020000   13.680000   32.437999       6.0000     15.9994
  194   2 H    1      23.100002   13.870001   31.487998       1.0000      1.0079
  195   2 H    1      22.900002   14.500000   32.918001       1.0000      1.0079
  196   1 O    8      -3.760000    7.570000   31.367999       6.0000     15.9994
  197   2 H    1      -4.410000    7.330000   32.077998       1.0000      1.0079
  198   2 H    1      -3.980000    6.850000   30.757999       1.0000      1.0079
  199   1 O    8      12.680000  -16.420000   36.027997       6.0000     15.9994
  200   2 H    1      12.280001  -15.610001   35.738000       1.0000      1.0079
  201   2 H    1      11.850000  -17.020000   36.197999       1.0000      1.0079
  202   1 O    8     -13.090000  -16.820000   33.238000       6.0000     15.9994
  203   2 H    1     -12.310000  -16.230000   32.867997       1.0000      1.0079
  204   2 H    1     -13.830000  -16.150002   33.087999       1.0000      1.0079
  205   1 O    8      19.700001    0.710000   39.728000       6.0000     15.9994
  206   2 H    1      20.360001    1.160000   39.107999       1.0000      1.0079
  207   2 H    1      19.580000   -0.190000   39.347999       1.0000      1.0079
  208   1 O    8     -24.920002   28.910000   39.818000       6.0000     15.9994
  209   2 H    1     -23.960001   28.690002   39.798000       1.0000      1.0079
  210   2 H    1     -25.270002   28.670002   38.937999       1.0000      1.0079
  211   1 O    8       6.040000   16.020000   36.337999       6.0000     15.9994
  212   2 H    1       6.940000   15.820000   36.717998       1.0000      1.0079
  213   2 H    1       6.250000   16.080000   35.327998       1.0000      1.0079
  214   1 O    8       7.730001   43.050003   39.247999       6.0000     15.9994
  215   2 H    1       7.430000   43.690002   39.927999       1.0000      1.0079
  216   2 H    1       8.150001   42.380005   39.798000       1.0000      1.0079
  217   1 O    8       4.460000   -3.000000   32.337999       6.0000     15.9994
  218   2 H    1      -4.880000   12.020000   32.527999       1.0000      1.0079
  219   2 H    1       5.100000   -2.220000   32.328000       1.0000      1.0079
  220   1 O    8      17.760002    9.410001   34.168001       6.0000     15.9994
  221   2 H    1       8.330001   23.940001   34.058000       1.0000      1.0079
  222   2 H    1       9.570000   23.280001   34.758001       1.0000      1.0079
  223   1 O    8      15.660001    9.010000   38.277999       6.0000     15.9994
  224   2 H    1      16.110001    9.840000   38.427999       1.0000      1.0079
  225   2 H    1      16.330002    8.280001   38.197999       1.0000      1.0079
  226   1 O    8      -4.360000   -0.070000   37.318000       6.0000     15.9994
  227   2 H    1      -4.330000   -0.940000   36.808000       1.0000      1.0079
  228   2 H    1      -3.560000    0.440000   36.977998       1.0000      1.0079
  229   1 O    8     -40.470005   30.180000   30.017999       6.0000     15.9994
  230   2 H    1     -41.130005   29.740002   29.368001       1.0000      1.0079
  231   2 H    1     -39.520000   30.020000   29.927999       1.0000      1.0079
  232   1 O    8       0.590000   12.940001   29.187997       6.0000     15.9994
  233   2 H    1       0.950000   12.040001   29.357999       1.0000      1.0079
  234   2 H    1      -0.410000   12.870001   29.488000       1.0000      1.0079
  235   1 O    8      17.550001  -27.020000   32.867997       6.0000     15.9994
  236   2 H    1      18.320002  -27.540001   32.748000       1.0000      1.0079
  237   2 H    1      17.260000  -26.790001   31.947999       1.0000      1.0079
  238   1 O    8      12.470001   -5.140000   37.307998       6.0000     15.9994
  239   2 H    1      13.340001   -5.080000   37.757999       1.0000      1.0079
  240   2 H    1      12.420001   -4.310000   36.747999       1.0000      1.0079
  241   1 O    8      -6.920000   11.660000   36.437999       6.0000     15.9994
  242   2 H    1      -6.620001   12.150001   37.278001       1.0000      1.0079
  243   2 H    1      -6.610000   10.740000   36.688001       1.0000      1.0079
  244   1 O    8      11.040001   16.130001   30.058000       6.0000     15.9994
  245   2 H    1      10.610001   16.000000   29.157998       1.0000      1.0079
  246   2 H    1      11.390000   17.080000   30.077997       1.0000      1.0079
  247   1 O    8      36.300003    7.750000   30.058000       6.0000     15.9994
  248   2 H    1      35.910000    8.650001   29.988000       1.0000      1.0079
  249   2 H    1      37.260002    7.960001   30.148000       1.0000      1.0079
  250   1 O    8       6.640000  -19.860001   38.417999       6.0000     15.9994
  251   2 H    1       6.580000  -18.850000   38.197999       1.0000      1.0079
  252   2 H    1       6.900001  -20.260000   37.558000       1.0000      1.0079
  253   1 O    8       1.480000  -10.980000   37.697999       6.0000     15.9994
  254   2 H    1       0.660000  -10.430001   37.287999       1.0000      1.0079
  255   2 H    1       1.690000  -11.440001   36.888000       1.0000      1.0079
  256   1 O    8      -1.520000    8.940001   33.557998       6.0000     15.9994
  257   2 H    1      -1.910000    8.910000   34.497999       1.0000      1.0079
  258   2 H    1      -1.930000    9.700001   33.117999       1.0000      1.0079
  259   1 O    8      -6.250000   12.770000   32.697999       6.0000     15.9994
  260   2 H    1     -14.360001   28.260002   32.947999       1.0000      1.0079
  261   2 H    1      -7.030000   12.700001   33.357999       1.0000      1.0079
  262   1 O    8     -22.120001    1.930000   33.148000       6.0000     15.9994
  263   2 H    1     -22.340002    2.640000   32.497999       1.0000      1.0079
  264   2 H    1     -22.620001    1.140000   32.748000       1.0000      1.0079
  265   1 O    8       5.370000  -11.640000   30.427999       6.0000     15.9994
  266   2 H    1       6.330000  -11.830001   30.207998       1.0000      1.0079
  267   2 H    1       5.290000  -11.270000   31.378000       1.0000      1.0079
  268   1 O    8     -18.400000    9.450001   29.727998       6.0000     15.9994
  269   2 H    1     -18.200001    9.290000   28.787999       1.0000      1.0079
  270   2 H    1     -19.360001    9.360001   29.777997       1.0000      1.0079
  271   1 O    8     -12.690001    4.440001   33.138000       6.0000     15.9994
  272   2 H    1     -13.390001    4.670000   33.757999       1.0000      1.0079
  273   2 H    1     -12.040001    5.180000   33.027999       1.0000      1.0079
  274   1 O    8      -9.310000   20.490000   36.267999       6.0000     15.9994
  275   2 H    1      -8.820001   20.800001   37.148000       1.0000      1.0079
  276   2 H    1      -9.960001   19.840000   36.568000       1.0000      1.0079
  277   1 O    8       5.860000    2.770000   36.358001       6.0000     15.9994
  278   2 H    1       6.460000    3.580000   36.398000       1.0000      1.0079
  279   2 H    1       5.510000    2.560000   35.438001       1.0000      1.0079
  280   1 O    8      17.770000   22.390001   30.258001       6.0000     15.9994
  281   2 H    1      17.960001   23.210001   29.797998       1.0000      1.0079
  282   2 H    1      16.810001   22.120001   30.087999       1.0000      1.0079
  283   1 O    8      -5.570001   15.450001   36.507999       6.0000     15.9994
  284   2 H    1      -6.590000   15.370001   36.537999       1.0000      1.0079
  285   2 H    1      -5.450000   16.420000   36.387998       1.0000      1.0079
  286   1 O    8      11.320001   34.140003   34.247999       6.0000     15.9994
  287   2 H    1      11.520000   34.940002   34.767999       1.0000      1.0079
  288   2 H    1      11.670000   33.430000   34.777997       1.0000      1.0079
  289   1 O    8       0.950000  -34.990002   39.037999       6.0000     15.9994
  290   2 H    1       0.020000  -34.840004   39.188001       1.0000      1.0079
  291   2 H    1       1.400000  -35.020000   39.927999       1.0000      1.0079
  292   1 O    8      -4.550000   19.840000   38.697999       6.0000     15.9994
  293   2 H    1      -3.970000   19.780001   39.488000       1.0000      1.0079
  294   2 H    1      -5.180000   19.070000   38.747999       1.0000      1.0079
  295   1 O    8       1.490000    5.560000   29.218000       6.0000     15.9994
  296   2 H    1     -15.050001    6.470000   29.488000       1.0000      1.0079
  297   2 H    1       0.500000    5.510000   29.387998       1.0000      1.0079
  298   1 O    8       4.500000   26.220001   39.767999       6.0000     15.9994
  299   2 H    1       4.750000   25.260000   39.758001       1.0000      1.0079
  300   2 H    1       5.160000   26.690002   39.128000       1.0000      1.0079
  301   1 O    8     -15.500001   11.230000   36.228000       6.0000     15.9994
  302   2 H    1     -16.049999   11.990000   36.528001       1.0000      1.0079
  303   2 H    1     -16.030001   10.850000   35.478000       1.0000      1.0079
  304   1 O    8      -4.230000   10.050000   30.258001       6.0000     15.9994
  305   2 H    1      -3.990000   10.710001   30.957998       1.0000      1.0079
  306   2 H    1      -4.030000    9.160001   30.708000       1.0000      1.0079
  307   3 Pt  78       1.730000    0.660000   26.847997      10.0000    195.0840
  308   3 Pt  78       4.560000    0.650000   26.898000      10.0000    195.0840
  309   3 Pt  78       7.430000    0.680000   26.738000      10.0000    195.0840
  310   3 Pt  78      10.200001    0.810000   26.657998      10.0000    195.0840
  311   3 Pt  78      12.930001    0.600000   26.787999      10.0000    195.0840
  312   3 Pt  78      15.860001    0.690000   26.777997      10.0000    195.0840
  313   3 Pt  78       3.060000    3.050000   26.808000      10.0000    195.0840
  314   3 Pt  78       6.080000    3.050000   26.767999      10.0000    195.0840
  315   3 Pt  78       8.900001    3.210000   26.777997      10.0000    195.0840
  316   3 Pt  78      11.580001    3.050000   26.738000      10.0000    195.0840
  317   3 Pt  78      14.390000    3.020000   26.747999      10.0000    195.0840
  318   3 Pt  78       0.240000    3.120000   26.968000      10.0000    195.0840
  319   3 Pt  78       4.570000    5.600000   26.887998      10.0000    195.0840
  320   3 Pt  78       7.330000    5.590000   26.798002      10.0000    195.0840
  321   3 Pt  78      10.210000    5.630000   26.857999      10.0000    195.0840
  322   3 Pt  78      13.050001    5.420001   26.847997      10.0000    195.0840
  323   3 Pt  78      -0.970000    5.560000   26.817998      10.0000    195.0840
  324   3 Pt  78       1.770000    5.690000   26.828000      10.0000    195.0840
  325   3 Pt  78       5.800000    8.030001   26.837999      10.0000    195.0840
  326   3 Pt  78       8.760000    8.040000   26.917997      10.0000    195.0840
  327   3 Pt  78      11.710000    8.030001   26.907998      10.0000    195.0840
  328   3 Pt  78      -2.480000    7.880001   26.757997      10.0000    195.0840
  329   3 Pt  78       0.210000    8.110001   26.887998      10.0000    195.0840
  330   3 Pt  78       3.000000    8.110001   26.837999      10.0000    195.0840
  331   3 Pt  78       7.340000   10.460000   26.878000      10.0000    195.0840
  332   3 Pt  78      10.270000   10.400001   27.107999      10.0000    195.0840
  333   3 Pt  78      -3.730000   10.540000   26.868001      10.0000    195.0840
  334   3 Pt  78      -1.030000   10.440001   26.917997      10.0000    195.0840
  335   3 Pt  78       1.800000   10.510000   26.938001      10.0000    195.0840
  336   3 Pt  78       4.510000   10.430001   26.947999      10.0000    195.0840
  337   3 Pt  78       8.740000   12.930001   26.857999      10.0000    195.0840
  338   3 Pt  78      -5.190001   12.980001   26.997999      10.0000    195.0840
  339   3 Pt  78      -2.350000   12.880001   26.817998      10.0000    195.0840
  340   3 Pt  78       0.430000   12.840000   26.898000      10.0000    195.0840
  341   3 Pt  78       3.130000   12.910000   26.808000      10.0000    195.0840
  342   3 Pt  78       6.000000   12.800001   26.738000      10.0000    195.0840
  343   3 Pt  78       0.220000    1.550000   24.517999      10.0000    195.0840
  344   3 Pt  78       3.100000    1.540000   24.517999      10.0000    195.0840
  345   3 Pt  78       5.880000    1.460000   24.378000      10.0000    195.0840
  346   3 Pt  78       8.680000    1.470000   24.368001      10.0000    195.0840
  347   3 Pt  78      11.500001    1.510000   24.337999      10.0000    195.0840
  348   3 Pt  78      14.290000    1.480000   24.477998      10.0000    195.0840
  349   3 Pt  78       1.770000    3.990000   24.567998      10.0000    195.0840
  350   3 Pt  78       4.500000    3.880000   24.578000      10.0000    195.0840
  351   3 Pt  78       7.340000    3.870000   24.378000      10.0000    195.0840
  352   3 Pt  78      10.050000    3.970000   24.347997      10.0000    195.0840
  353   3 Pt  78      12.970000    3.910000   24.427999      10.0000    195.0840
  354   3 Pt  78      -1.120000    4.030000   24.497999      10.0000    195.0840
  355   3 Pt  78       3.150000    6.450000   24.697999      10.0000    195.0840
  356   3 Pt  78       5.930000    6.360001   24.508001      10.0000    195.0840
  357   3 Pt  78       8.710001    6.480000   24.427999      10.0000    195.0840
  358   3 Pt  78      11.480000    6.340000   24.578000      10.0000    195.0840
  359   3 Pt  78      -2.600000    6.340000   24.487996      10.0000    195.0840
  360   3 Pt  78       0.360000    6.440001   24.417997      10.0000    195.0840
  361   3 Pt  78       4.490000    8.850000   24.417997      10.0000    195.0840
  362   3 Pt  78       7.290000    8.840000   24.517999      10.0000    195.0840
  363   3 Pt  78      10.000000    8.860001   24.668001      10.0000    195.0840
  364   3 Pt  78      -4.110000    8.800000   24.567998      10.0000    195.0840
  365   3 Pt  78      -1.140000    8.690001   24.458001      10.0000    195.0840
  366   3 Pt  78       1.840000    8.910000   24.528001      10.0000    195.0840
  367   3 Pt  78       5.880000   11.320001   24.447999      10.0000    195.0840
  368   3 Pt  78       8.710001   11.310000   24.628000      10.0000    195.0840
  369   3 Pt  78      -5.390000   11.250000   24.637998      10.0000    195.0840
  370   3 Pt  78      -2.480000   11.220001   24.477998      10.0000    195.0840
  371   3 Pt  78       0.220000   11.180000   24.407998      10.0000    195.0840
  372   3 Pt  78       3.090000   11.330000   24.427999      10.0000    195.0840
  373   3 Pt  78       7.290000   13.700001   24.477998      10.0000    195.0840
  374   3 Pt  78      -6.760001   13.640001   24.617997      10.0000    195.0840
  375   3 Pt  78      -3.870000   13.720001   24.617997      10.0000    195.0840
  376   3 Pt  78      -1.050000   13.650000   24.417997      10.0000    195.0840
  377   3 Pt  78       1.690000   13.640001   24.398000      10.0000    195.0840
  378   3 Pt  78       4.560000   13.740001   24.387998      10.0000    195.0840
  379   3 Pt  78      -8.240001   14.470000   22.247999      10.0000    195.0840
  380   3 Pt  78      -5.430000   14.490002   22.317998      10.0000    195.0840
  381   3 Pt  78      -2.590000   14.480001   22.197999      10.0000    195.0840
  382   3 Pt  78       0.110000   14.390000   22.067998      10.0000    195.0840
  383   3 Pt  78       2.990000   14.480001   22.128000      10.0000    195.0840
  384   3 Pt  78       5.820000   14.550000   22.097997      10.0000    195.0840
  385   3 Pt  78       1.560000    2.370000   22.308000      10.0000    195.0840
  386   3 Pt  78       4.440001    2.430000   22.197999      10.0000    195.0840
  387   3 Pt  78       7.250000    2.280000   22.037996      10.0000    195.0840
  388   3 Pt  78      10.040001    2.190000   22.067998      10.0000    195.0840
  389   3 Pt  78      12.900001    2.290000   22.118001      10.0000    195.0840
  390   3 Pt  78      -1.260000    2.310000   22.177999      10.0000    195.0840
  391   3 Pt  78       3.130000    4.820000   22.247999      10.0000    195.0840
  392   3 Pt  78       5.820000    4.800000   22.247999      10.0000    195.0840
  393   3 Pt  78       8.680000    4.820000   22.097997      10.0000    195.0840
  394   3 Pt  78      11.390000    4.730000   22.107999      10.0000    195.0840
  395   3 Pt  78      -2.630000    4.700000   22.197999      10.0000    195.0840
  396   3 Pt  78       0.230000    4.730000   22.197999      10.0000    195.0840
  397   3 Pt  78       4.440001    7.290000   22.157998      10.0000    195.0840
  398   3 Pt  78       7.210000    7.250000   22.128000      10.0000    195.0840
  399   3 Pt  78       9.960001    7.330000   22.227998      10.0000    195.0840
  400   3 Pt  78      -4.140000    7.180000   22.218000      10.0000    195.0840
  401   3 Pt  78      -1.190000    7.130001   22.067998      10.0000    195.0840
  402   3 Pt  78       1.670000    7.160000   22.188001      10.0000    195.0840
  403   3 Pt  78       5.810000    9.740001   22.148000      10.0000    195.0840
  404   3 Pt  78       8.610001    9.670001   22.287999      10.0000    195.0840
  405   3 Pt  78      -5.390000    9.670001   22.297998      10.0000    195.0840
  406   3 Pt  78      -2.590000    9.570000   22.197999      10.0000    195.0840
  407   3 Pt  78       0.300000    9.530001   22.177999      10.0000    195.0840
  408   3 Pt  78       3.010000    9.720000   22.048002      10.0000    195.0840
  409   3 Pt  78       7.140000   12.100000   22.067998      10.0000    195.0840
  410   3 Pt  78      -6.940000   12.030001   22.287999      10.0000    195.0840
  411   3 Pt  78      -4.030000   12.060001   22.167997      10.0000    195.0840
  412   3 Pt  78      -1.210000   11.950001   22.128000      10.0000    195.0840
  413   3 Pt  78       1.560000   12.040001   22.078000      10.0000    195.0840
  414   3 Pt  78       4.350000   12.200001   22.087999      10.0000    195.0840
  415   3 Pt  78       1.580000    0.740000   19.990001      10.0000    195.0840
  416   3 Pt  78       4.440001    0.610000   19.990001      10.0000    195.0840
  417   3 Pt  78       7.150001    0.730000   19.870001      10.0000    195.0840
  418   3 Pt  78       9.930000    0.710000   19.780001      10.0000    195.0840
  419   3 Pt  78      12.750001    0.690000   19.700001      10.0000    195.0840
  420   3 Pt  78      15.560001    0.730000   19.870001      10.0000    195.0840
  421   3 Pt  78       3.050000    3.020000   19.960001      10.0000    195.0840
  422   3 Pt  78       5.750000    3.140000   19.830001      10.0000    195.0840
  423   3 Pt  78       8.530001    3.200000   19.850001      10.0000    195.0840
  424   3 Pt  78      11.370001    3.120000   19.880001      10.0000    195.0840
  425   3 Pt  78      14.180001    3.070000   19.810001      10.0000    195.0840
  426   3 Pt  78       0.200000    3.050000   19.850001      10.0000    195.0840
  427   3 Pt  78       4.350000    5.600000   19.840001      10.0000    195.0840
  428   3 Pt  78       7.110000    5.670000   19.870001      10.0000    195.0840
  429   3 Pt  78       9.910001    5.630000   19.860001      10.0000    195.0840
  430   3 Pt  78      12.720001    5.530000   19.900001      10.0000    195.0840
  431   3 Pt  78      -1.250000    5.500000   19.870001      10.0000    195.0840
  432   3 Pt  78       1.650000    5.480001   19.870001      10.0000    195.0840
  433   3 Pt  78       5.770000    8.050001   19.790001      10.0000    195.0840
  434   3 Pt  78       8.640000    8.120001   19.830001      10.0000    195.0840
  435   3 Pt  78      11.420001    8.050001   19.880001      10.0000    195.0840
  436   3 Pt  78      -2.650000    7.900000   19.850001      10.0000    195.0840
  437   3 Pt  78       0.180000    7.920001   19.850001      10.0000    195.0840
  438   3 Pt  78       2.940000    8.000000   19.920001      10.0000    195.0840
  439   3 Pt  78       7.130001   10.490000   19.910001      10.0000    195.0840
  440   3 Pt  78       9.950001   10.510000   20.040001      10.0000    195.0840
  441   3 Pt  78      -4.000000   10.470000   19.940001      10.0000    195.0840
  442   3 Pt  78      -1.200000   10.340000   19.880001      10.0000    195.0840
  443   3 Pt  78       1.490000   10.520000   19.750001      10.0000    195.0840
  444   3 Pt  78       4.370000   10.510000   19.820001      10.0000    195.0840
  445   3 Pt  78       8.580000   12.960000   19.920001      10.0000    195.0840
  446   3 Pt  78      -5.550000   12.860001   20.060001      10.0000    195.0840
  447   3 Pt  78      -2.680000   12.720001   19.840001      10.0000    195.0840
  448   3 Pt  78       0.040000   12.890000   19.810001      10.0000    195.0840
  449   3 Pt  78       2.930000   12.890000   19.710001      10.0000    195.0840
  450   3 Pt  78       5.780000   12.890000   19.760001      10.0000    195.0840
  451   3 Pt  78       0.150000    1.510000   17.710001      10.0000    195.0840
  452   3 Pt  78       2.970000    1.570000   17.710001      10.0000    195.0840
  453   3 Pt  78       5.780000    1.640000   17.560001      10.0000    195.0840
  454   3 Pt  78       8.460000    1.720000   17.510000      10.0000    195.0840
  455   3 Pt  78      11.240001    1.490000   17.420000      10.0000    195.0840
  456   3 Pt  78      14.150001    1.520000   17.430001      10.0000    195.0840
  457   3 Pt  78       1.610000    3.960000   17.520000      10.0000    195.0840
  458   3 Pt  78       4.340000    4.130000   17.540001      10.0000    195.0840
  459   3 Pt  78       7.050000    4.110000   17.370000      10.0000    195.0840
  460   3 Pt  78       9.990001    4.070000   17.570001      10.0000    195.0840
  461   3 Pt  78      12.620001    3.880000   17.600000      10.0000    195.0840
  462   3 Pt  78      -1.400000    4.040000   17.650000      10.0000    195.0840
  463   3 Pt  78       2.970000    6.400001   17.560001      10.0000    195.0840
  464   3 Pt  78       5.700001    6.450000   17.510000      10.0000    195.0840
  465   3 Pt  78       8.510000    6.490001   17.590001      10.0000    195.0840
  466   3 Pt  78      11.280001    6.420000   17.650000      10.0000    195.0840
  467   3 Pt  78      -2.790000    6.410000   17.600000      10.0000    195.0840
  468   3 Pt  78       0.150000    6.370000   17.670001      10.0000    195.0840
  469   3 Pt  78       4.220000    8.890000   17.540001      10.0000    195.0840
  470   3 Pt  78       7.010000    8.940001   17.560001      10.0000    195.0840
  471   3 Pt  78       9.850000    8.940001   17.610001      10.0000    195.0840
  472   3 Pt  78      -4.230000    8.880001   17.530000      10.0000    195.0840
  473   3 Pt  78      -1.270000    8.870000   17.550000      10.0000    195.0840
  474   3 Pt  78       1.450000    8.850000   17.490001      10.0000    195.0840
  475   3 Pt  78       5.570001   11.330000   17.450001      10.0000    195.0840
  476   3 Pt  78       8.420001   11.250000   17.670001      10.0000    195.0840
  477   3 Pt  78      -5.560000   11.280001   17.640001      10.0000    195.0840
  478   3 Pt  78      -2.740000   11.320001   17.530000      10.0000    195.0840
  479   3 Pt  78       0.060000   11.450001   17.500000      10.0000    195.0840
  480   3 Pt  78       2.840000   11.450001   17.410001      10.0000    195.0840
  481   3 Pt  78       7.230001   13.640001   17.470001      10.0000    195.0840
  482   3 Pt  78      -6.860001   13.670001   17.680001      10.0000    195.0840
  483   3 Pt  78      -4.140000   13.760000   17.740000      10.0000    195.0840
  484   3 Pt  78      -1.320000   13.810000   17.580000      10.0000    195.0840
  485   3 Pt  78       1.430000   13.800001   17.440001      10.0000    195.0840
  486   3 Pt  78       4.290000   13.790001   17.460001      10.0000    195.0840
  487   3 Pt  78      -8.380001   14.650001   15.210001      10.0000    195.0840
  488   3 Pt  78      -5.690000   14.680000   15.430001      10.0000    195.0840
  489   3 Pt  78      -2.770000   14.510001   15.280000      10.0000    195.0840
  490   3 Pt  78      -0.020000   14.550000   15.160001      10.0000    195.0840
  491   3 Pt  78       2.830000   14.630001   15.090000      10.0000    195.0840
  492   3 Pt  78       5.510000   14.600000   15.170001      10.0000    195.0840
  493   3 Pt  78       1.530000    2.390000   15.460000      10.0000    195.0840
  494   3 Pt  78       4.260000    2.330000   15.260000      10.0000    195.0840
  495   3 Pt  78       7.070000    2.320000   15.080000      10.0000    195.0840
  496   3 Pt  78       9.840000    2.530000   15.200001      10.0000    195.0840
  497   3 Pt  78      12.660000    2.470000   15.180000      10.0000    195.0840
  498   3 Pt  78      -1.360000    2.470000   15.390000      10.0000    195.0840
  499   3 Pt  78       2.790000    4.850000   15.160001      10.0000    195.0840
  500   3 Pt  78       5.590000    4.830000   15.040000      10.0000    195.0840
  501   3 Pt  78       8.400001    4.890000   15.150001      10.0000    195.0840
  502   3 Pt  78      11.170001    4.860000   15.250000      10.0000    195.0840
  503   3 Pt  78      -2.930000    5.010000   15.100000      10.0000    195.0840
  504   3 Pt  78       0.080000    4.870000   15.390000      10.0000    195.0840
  505   3 Pt  78       4.240000    7.280001   15.370000      10.0000    195.0840
[...]
 flops     5 x    32 x    13           5265694720       0.0%    100.0%      0.0%
 flops    13 x     5 x    96           5730004800       0.0%    100.0%      0.0%
 flops     5 x    13 x    96           5735620800       0.0%    100.0%      0.0%
 flops    13 x     5 x   100           5968755000       0.0%    100.0%      0.0%
 flops     5 x    13 x   100           5974605000       0.0%    100.0%      0.0%
 flops    13 x    32 x    13           6241870336       0.0%    100.0%      0.0%
 flops    13 x    13 x    96           6870052800       0.0%    100.0%      0.0%
 flops    13 x    13 x   100           7156305000       0.0%    100.0%      0.0%
 flops    13 x    32 x    20           8552627200       0.0%    100.0%      0.0%
 flops    20 x    32 x    13           8552627200       0.0%    100.0%      0.0%
 flops    20 x    32 x     5           9238694400       0.0%    100.0%      0.0%
 flops     5 x    32 x    20           9238694400       0.0%    100.0%      0.0%
 flops    20 x    13 x    96           9286617600       0.0%    100.0%      0.0%
 flops    13 x    20 x    96           9336038400       0.0%    100.0%      0.0%
 flops    20 x    13 x   100           9673560000       0.0%    100.0%      0.0%
 flops    13 x    20 x   100           9725040000       0.0%    100.0%      0.0%
 flops     5 x    20 x    96          10056096000       0.0%    100.0%      0.0%
 flops    20 x     5 x    96          10060416000       0.0%    100.0%      0.0%
 flops     5 x    20 x   100          10475100000       0.0%    100.0%      0.0%
 flops    20 x     5 x   100          10479600000       0.0%    100.0%      0.0%
 flops    20 x    32 x    20          74052403200       0.0%    100.0%      0.0%
 flops    20 x    20 x    96          80994816000       0.0%    100.0%      0.0%
 flops     5 x     5 x   128          84276864000       0.0%    100.0%      0.0%
 flops    20 x    20 x   100          84369600000       0.0%    100.0%      0.0%
 flops    13 x     5 x   128         106960089600       0.0%    100.0%      0.0%
 flops     5 x    13 x   128         107064921600       0.0%    100.0%      0.0%
 flops    13 x    13 x   128         128240985600       0.0%    100.0%      0.0%
 flops    20 x    13 x   128         173350195200       0.0%    100.0%      0.0%
 flops    13 x    20 x   128         174272716800       0.0%    100.0%      0.0%
 flops     5 x    20 x   128         187713792000       0.0%    100.0%      0.0%
 flops    20 x     5 x   128         187794432000       0.0%    100.0%      0.0%
 flops    20 x    20 x   128        1511903232000       0.0%    100.0%      0.0%
 flops inhomo. stacks                           0       0.0%      0.0%      0.0%
 flops total                         3.083485E+12       0.0%    100.0%      0.0%
 flops max/rank                     27.766396E+09       0.0%    100.0%      0.0%
 matmuls inhomo. stacks                         0       0.0%      0.0%      0.0%
 matmuls total                           85440186       0.0%    100.0%      0.0%
 number of processed stacks                850652       0.0%    100.0%      0.0%
 average stack size                                     0.0     100.4       0.0
 marketing flops                     6.369927E+12
 -------------------------------------------------------------------------------
 # multiplications                             46
 max memory usage/rank               1.619263E+09
 # max total images/rank                        2
 # max 3D layers                                1
 # MPI messages exchanged                  170752
 MPI messages size (bytes):
  total size                       109.645644E+09
  min size                         278.784000E+03
  max size                           2.270064E+06
  average size                     642.133875E+03
 MPI breakdown and total messages size (bytes):
             size <=      128                   0                        0
       128 < size <=     8192                   0                        0
      8192 < size <=    32768                   0                        0
     32768 < size <=   131072                   0                        0
    131072 < size <=  4194304              170752             109645647648
   4194304 < size <= 16777216                   0                        0
  16777216 < size                               0                        0
 -------------------------------------------------------------------------------

 *** WARNING in dbcsr_mm.F:290 :: Using a non-square number of MPI ranks ***
 *** might lead to poor performance. Used ranks: 128 Suggested: 121 256  ***

 -------------------------------------------------------------------------------
 -                                                                             -
 -                      DBCSR MESSAGE PASSING PERFORMANCE                      -
 -                                                                             -
 -------------------------------------------------------------------------------
 ROUTINE             CALLS      AVE VOLUME [Bytes]
 MP_Bcast               46                     12.
 MP_Allreduce          425                     12.
 MP_Alltoall          1281                 596496.
 MP_ISend             2944                 305353.
 MP_IRecv             2944                 298967.
 -------------------------------------------------------------------------------

 -------------------------------------------------------------------------------
 -                                                                             -
 -                                DBM STATISTICS                               -
 -                                                                             -
 -------------------------------------------------------------------------------
    M  x    N  x    K                                          COUNT     PERCENT
 -------------------------------------------------------------------------------

 -------------------------------------------------------------------------------
 -                                                                             -
 -                                GRID STATISTICS                              -
 -                                                                             -
 -------------------------------------------------------------------------------
 LP    KERNEL             BACKEND                              COUNT     PERCENT
 4     collocate general  REF                               17886748      21.81%
 4     integrate general  REF                               17768602      21.67%
 3     collocate general  REF                               12688324      15.47%
 3     integrate general  REF                               12633806      15.41%
 2     collocate general  REF                               10289532      12.55%
 2     integrate general  REF                               10055679      12.26%
 5     integrate general  REF                                 406517       0.50%
 0     collocate general  REF                                 133632       0.16%
 0     integrate general  REF                                  66816       0.08%
 1     integrate general  REF                                  66816       0.08%
 -------------------------------------------------------------------------------

 MEMORY| Estimated peak process memory [MiB]                                1806

 -------------------------------------------------------------------------------
 ----                             MULTIGRID INFO                            ----
 -------------------------------------------------------------------------------
 count for grid        1:        1099343          cutoff [a.u.]          200.00
 count for grid        2:        1094327          cutoff [a.u.]           66.67
 count for grid        3:         720689          cutoff [a.u.]           22.22
 count for grid        4:         559666          cutoff [a.u.]            7.41
 total gridlevel count  :        3474025

 -------------------------------------------------------------------------------
 -                                                                             -
 -                         MESSAGE PASSING PERFORMANCE                         -
 -                                                                             -
 -------------------------------------------------------------------------------

 ROUTINE             CALLS      AVE VOLUME [Bytes]
 MP_Group                4
 MP_Bcast             2232                 303239.
 MP_Allreduce         3551                  30878.
 MP_Sync                94
 MP_Alltoall          2652               16783784.
 MP_SendRecv           508                   5904.
 MP_ISendRecv        22352                  61740.
 MP_Wait             39548
 MP_comm_split          45
 MP_ISend            16208                 256318.
 MP_IRecv            16208                 256318.
 MP_Recv               186                1706496.
 MP_Write_All            3                1797408.
 -------------------------------------------------------------------------------


 -------------------------------------------------------------------------------
 -                                                                             -
 -                           R E F E R E N C E S                               -
 -                                                                             -
 -------------------------------------------------------------------------------
 
 CP2K version 2022.1, the CP2K developers group (2022).
 CP2K is freely available from https://www.cp2k.org/ .

 Kuehne,Thomas D.; Iannuzzi,Marcella; Del Ben,Mauro;
 Rybkin,Vladimir V.; Seewald,Patrick; Stein,Frederick; Laino,Teodoro;
 Khaliullin,Rustam Z.; Schuett,Ole; Schiffmann,Florian; Golze,Dorothea;
 Wilhelm,Jan; Chulkov,Sergey; Bani-Hashemian,Mohammad Hossein;
 Weber,Valery; Borstnik,Urban; Taillefumier,Mathieu;
 Jakobovits,Alice Shoshana; Lazzaro,Alfio; Pabst,Hans; Mueller,Tiziano;
 Schade,Robert; Guidon,Manuel; Andermatt,Samuel; Holmberg,Nico;
 Schenter,Gregory K.; Hehn,Anna; Bussy,Augustin; Belleflamme,Fabian;
 Tabacchi,Gloria; Gloess,Andreas; Lass,Michael; Bethune,Iain;
 Mundy,Christopher J.; Plessl,Christian; Watkins,Matt;
 VandeVondele,Joost; Krack,Matthias; Hutter,Juerg. 
 The Journal of Chemical Physics, 152 (19), (2020). 
 CP2K: An electronic structure and molecular dynamics software package -
 Quickstep: Efficient and accurate electronic structure calculations.
 https://doi.org/10.1063/5.0007045

 Goerigk, Lars; Hansen, Andreas; Bauer, Christoph; Ehrlich, Stephan;
 Najibi, Asim; Grimme, Stefan. , 19 (48), (2017). 
 A look at the density functional theory zoo with the advanced GMTKN55 database
 for general main group thermochemistry, kinetics and noncovalent interactions.
 https://doi.org/10.1039/C7CP04913G

 Bani-Hashemian, MH; Bruck, S; Luisier, M; VandeVondele, J. 
 JOURNAL OF CHEMICAL PHYSICS, 144 (4), 044113 (2016). 
 A generalized Poisson solver for first-principles device simulations.
 https://doi.org/10.1063/1.4940796

 Schuett, Ole; Messmer, Peter; Hutter, Juerg; VandeVondele, Joost. 
 Electronic Structure Calculations on Graphics Processing Units, John
 Wiley & Sons, Ltd, 173-190 (2016). 
 GPU-Accelerated Sparse Matrix-Matrix Multiplication for
 Linear Scaling Density Functional Theory.
 https://doi.org/10.1002/9781118670712.ch8

 Heinecke, A; Henry, G; Hutchinson, M; Pabst, H. 
 Proceedings of Intl. Supercomputing Conference, 981-991 (2016). 
 LIBXSMM: Accelerating Small Matrix Multiplications
 by Runtime Code Generation.
 https://doi.org/10.1109/SC.2016.83

 Borstnik, U; VandeVondele, J; Weber, V; Hutter, J. 
 PARALLEL COMPUTING, 40 (5-6), 47-58 (2014). 
 Sparse matrix multiplication: The distributed block-compressed sparse
 row library.
 https://doi.org/10.1016/j.parco.2014.03.012

 Hutter, J; Iannuzzi, M; Schiffmann, F; VandeVondele, J. 
 WIREs Comput Mol Sci., 4 (1), 15-25 (2014). 
 CP2K: atomistic simulations of condensed matter systems.
 https://doi.org/10.1002/wcms.1159

 Marek, A; Blum, V; Johanni, R; Havu, V; Lang, B; Auckenthaler, T;
 Heinecke, A; Bungartz, H; Lederer, H. 
 Journal of Physics: Condensed Matter, 26 (21), (2014). 
 The ELPA library: scalable parallel eigenvalue solutions for
 electronic structure
 theory and computational science.
 https://doi.org/10.1088/0953-8984/26/21/213201

 Grimme, S; Ehrlich, S; Goerigk, L. 
 JOURNAL OF COMPUTATIONAL CHEMISTRY, 32, 1456 (2011). 
 Effect of the damping function in dispersion corrected density functional theory.
 https://doi.org/10.1002/jcc.21759

 Grimme, S; Antony, J; Ehrlich, S; Krieg, H. 
 JOURNAL OF CHEMICAL PHYSICS, 132 (15), 154104 (2010). 
 A consistent and accurate ab initio parametrization of density
 functional dispersion correction (DFT-D) for the 94 elements H-Pu.
 https://doi.org/10.1063/1.3382344

 VandeVondele, J; Hutter, J. 
 JOURNAL OF CHEMICAL PHYSICS, 127 (11), 114105 (2007). 
 Gaussian basis sets for accurate calculations on molecular systems in
 gas and condensed phases.
 https://doi.org/10.1063/1.2770708

 Krack, M. 
 THEORETICAL CHEMISTRY ACCOUNTS, 114 (1-3), 145-152 (2005). 
 Pseudopotentials for H to Kr optimized for gradient-corrected
 exchange-correlation functionals.
 https://doi.org/10.1007/s00214-005-0655-y

 VandeVondele, J; Krack, M; Mohamed, F; Parrinello, M; Chassaing, T;
 Hutter, J. COMPUTER PHYSICS COMMUNICATIONS, 167 (2), 103-128 (2005). 
 QUICKSTEP: Fast and accurate density functional calculations using a
 mixed Gaussian and plane waves approach.
 https://doi.org/10.1016/j.cpc.2004.12.014

 Frigo, M; Johnson, SG. 
 PROCEEDINGS OF THE IEEE, 93 (2), 216-231 (2005). 
 The design and implementation of FFTW3.
 https://doi.org/10.1109/JPROC.2004.840301

 Hartwigsen, C; Goedecker, S; Hutter, J. 
 PHYSICAL REVIEW B, 58 (7), 3641-3662 (1998). 
 Relativistic separable dual-space Gaussian pseudopotentials from H to Rn.
 https://doi.org/10.1103/PhysRevB.58.3641

 Lippert, G; Hutter, J; Parrinello, M. 
 MOLECULAR PHYSICS, 92 (3), 477-487 (1997). 
 A hybrid Gaussian and plane wave density functional scheme.
 https://doi.org/10.1080/002689797170220

 Perdew, JP; Burke, K; Ernzerhof, M. 
 PHYSICAL REVIEW LETTERS, 77 (18), 3865-3868 (1996). 
 Generalized gradient approximation made simple.
 https://doi.org/10.1103/PhysRevLett.77.3865

 Goedecker, S; Teter, M; Hutter, J. 
 PHYSICAL REVIEW B, 54 (3), 1703-1710 (1996). 
 Separable dual-space Gaussian pseudopotentials.
 https://doi.org/10.1103/PhysRevB.54.1703


 -------------------------------------------------------------------------------
 -                                                                             -
 -                                T I M I N G                                  -
 -                                                                             -
 -------------------------------------------------------------------------------
 SUBROUTINE                       CALLS  ASD         SELF TIME        TOTAL TIME
                                MAXIMUM       AVERAGE  MAXIMUM  AVERAGE  MAXIMUM
 CP2K                                 1  1.0    0.021    0.033  312.098  312.100
 qs_forces                            1  2.0    0.002    0.005  311.753  311.754
 qs_energies                          1  3.0    0.000    0.001  304.405  304.410
 scf_env_do_scf                       1  4.0    0.000    0.001  294.929  295.073
 scf_env_do_scf_inner_loop           43  5.0    0.002    0.005  294.925  295.069
 rebuild_ks_matrix                   44  6.9    0.000    0.000  158.235  158.276
 qs_ks_build_kohn_sham_matrix        44  7.9    0.007    0.007  158.235  158.276
 qs_ks_update_qs_env                 43  6.0    0.000    0.000  153.701  153.741
 pw_transfer                       2282 12.2    0.166    0.220   99.416  101.657
 fft_wrap_pw1pw2                   2282 13.2    0.022    0.029   99.250  101.462
 fft_wrap_pw1pw2_200               2018 14.4    6.692    7.871   97.876  100.020
 qs_scf_new_mos                      43  6.0    0.002    0.006   85.613   85.752
 pw_poisson_solve                    44  8.9    0.004    0.011   85.112   85.152
 fft3d_ps                          2282 15.2   28.648   31.660   79.848   83.233
 eigensolver                         43  7.0    0.003    0.005   80.818   81.103
 implicit_poisson_solver_mixed_      44  9.9    1.800    2.199   80.561   80.625
 cp_fm_diag_elpa                     45  8.0    0.001    0.001   56.762   56.908
 derive_fft                         262 12.1    0.016    0.018   56.492   56.651
 cp_fm_redistribute_end              45  9.0    7.513   56.248    7.604   56.304
 cp_fm_diag_elpa_base                45  9.0   47.969   54.998   48.431   55.509
 mp_alltoall_z22v                  2282 17.2   42.805   53.347   42.805   53.347
 qs_rho_update_rho_low               44  6.0    0.000    0.000   49.122   49.135
 calculate_rho_elec                  44  7.0    0.085    0.105   49.122   49.135
 sum_up_and_integrate                44  8.9    0.239    0.296   48.615   48.653
 integrate_v_rspace                  44  9.9    0.001    0.002   48.376   48.479
 apply_P_operator                   218 11.1    1.161    1.313   48.262   48.396
 grid_collocate_task_list            44  8.0   32.401   38.549   32.401   38.549
 grid_integrate_task_list            44 10.9   30.086   35.097   30.086   35.097
 x_to_yz                           1314 16.4    5.582    7.369   32.315   33.454
 rs_pw_transfer                     356 10.4    0.004    0.008   21.072   26.005
 cp_fm_triangular_multiply          129  8.0   25.468   25.817   25.468   25.817
 yz_to_x                            704 16.4    1.927    2.267   17.825   24.462
 qs_vxc_create                       44  8.9    0.001    0.002   21.966   22.239
 xc_vxc_pw_create                    44  9.9    0.374    0.467   21.965   22.238
 density_rs2pw                       44  8.0    0.003    0.003   15.634   20.704
 xc_pw_derive                       264 11.9    0.004    0.005   15.465   17.124
 apply_poisson_operator_fft          44 10.9    0.001    0.001   14.233   14.486
 mp_waitany                       16208 12.4    8.883   14.051    8.883   14.051
 rs_pw_transfer_RS2PW_200            46  9.9    3.014    3.309    8.964   13.877
 apply_inv_laplace_operator_fft     133 11.6    0.330    0.383   12.865   13.334
 potential_pw2rs                     44 10.9    0.013    0.014   12.596   12.690
 xc_pw_divergence                    44 10.9    0.002    0.002   10.527   11.783
 mp_alltoall_d11v                   638 10.3    7.078   11.563    7.078   11.563
 xc_rho_set_and_dset_create          44 10.9    0.217    0.262   10.634   11.458
 ps_implicit_compute_error_fft       87 10.9    0.547    0.662    9.554   10.249
 rs_gather_matrices                  44 10.9    0.054    0.076    5.679   10.144
 ps_implicit_compute_veps            44 10.9    0.255    0.302    9.649    9.809
 pw_scatter_p                      1446 15.4    8.075    9.475    8.075    9.475
 rs_pw_transfer_PW2RS_200            46 12.7    3.457    3.626    7.317    7.514
 gspace_mixing                       42  6.0    0.080    0.098    7.336    7.336
 pw_derive                         1050 13.1    6.680    7.026    6.680    7.026
 -------------------------------------------------------------------------------

 The number of warnings for this run is : 1
 
 -------------------------------------------------------------------------------
  **** **** ******  **  PROGRAM ENDED AT                 2023-12-03 01:04:31.956
 ***** ** ***  *** **   PROGRAM RAN ON                                     cu001
 **    ****   ******    PROGRAM RAN BY                                     jxzhu
 ***** **    ** ** **   PROGRAM PROCESS ID                                 19304
  **** **  *******  **  PROGRAM STOPPED IN /public/home/jxzhu/tmp_calc/2de603fd7
                                           2c9b5ce6e7adcc91794b014b99ccf1b/calc/
                                           002300.000/search_hi.000000
