 DBCSR| CPU Multiplication driver                                           XSMM
 DBCSR| Multrec recursion limit                                              512
 DBCSR| Multiplication stack size                                           1000
 DBCSR| Maximum elements for images                                    UNLIMITED
 DBCSR| Multiplicative factor virtual images                                   1
 DBCSR| Use multiplication densification                                       T
 DBCSR| Multiplication size stacks                                             3
 DBCSR| Use memory pool for CPU allocation                                     F
 DBCSR| Number of 3D layers                                               SINGLE
 DBCSR| Use MPI memory allocation                                              F
 DBCSR| Use RMA algorithm                                                      F
 DBCSR| Use Communication thread                                               T
 DBCSR| Communication thread load                                             87
 DBCSR| MPI: My node id                                                        0
 DBCSR| MPI: Number of nodes                                                 128
 DBCSR| OMP: Current number of threads                                         1
 DBCSR| OMP: Max number of threads                                             1
 DBCSR| Split modifier for TAS multiplication algorithm                  1.0E+00


  **** **** ******  **  PROGRAM STARTED AT               2023-12-03 05:15:19.277
 ***** ** ***  *** **   PROGRAM STARTED ON                                 cu001
 **    ****   ******    PROGRAM STARTED BY                                 jxzhu
 ***** **    ** ** **   PROGRAM PROCESS ID                                 22913
  **** **  *******  **  PROGRAM STARTED IN /public/home/jxzhu/tmp_calc/817e5e76e
                                           c7c5c7b65747260f88b1bb2273e3a66/calc/
                                           002700.000/search_hi.000000

 CP2K| version string:                                       CP2K version 2022.1
 CP2K| source code revision number:                                  git:2caeb6f
 CP2K| cp2kflags: omp libint fftw3 libxc elpa parallel mpi3 scalapack cosma xsmm
 CP2K|             plumed2 spglib mkl sirius libvori libbqb
 CP2K| is freely available from                            https://www.cp2k.org/
 CP2K| Program compiled at                           Mon Jul 3 17:37:06 CST 2023
 CP2K| Program compiled on                                                 mu003
 CP2K| Program compiled for                                                local
 CP2K| Data directory path                             /public/home/jxzhu/basis/
 CP2K| Input file name                                                 input.inp
 
 GLOBAL| Force Environment number                                              1
 GLOBAL| Basis set file name                                        BASIS_MOLOPT
 GLOBAL| Potential file name                                      GTH_POTENTIALS
 GLOBAL| MM Potential file name                                     MM_POTENTIAL
 GLOBAL| Coordinate file name                                          coord.xyz
 GLOBAL| Method name                                                        CP2K
 GLOBAL| Project name                                                       cp2k
 GLOBAL| Run type                                                   ENERGY_FORCE
 GLOBAL| FFT library                                                       FFTW3
 GLOBAL| Diagonalization library                                            ELPA
 GLOBAL| Minimum number of eigenvectors for ELPA usage                        16
 GLOBAL| Orthonormality check for eigenvectors                          DISABLED
 GLOBAL| Matrix multiplication library                                     COSMA
 GLOBAL| All-to-all communication in single precision                          F
 GLOBAL| FFTs using library dependent lengths                                  T
 GLOBAL| Grid backend                                                       AUTO
 GLOBAL| Global print level                                               MEDIUM
 GLOBAL| MPI I/O enabled                                                       T
 GLOBAL| Total number of message passing processes                           128
 GLOBAL| Number of threads for this process                                    1
 GLOBAL| This output is from process                                           0
 GLOBAL| Stack size for threads created by OpenMP (OMP_STACKSIZE)        default
 GLOBAL| CPU model name                 Intel(R) Xeon(R) Gold 6338 CPU @ 2.00GHz
 GLOBAL| CPUID                                                              1003

 MEMORY| system memory details [Kb]
 MEMORY|                        rank 0           min           max       average
 MEMORY| MemTotal            263619172     263619172     263619172     263619172
 MEMORY| MemFree             217983156     215881760     217983528     216932477
 MEMORY| Buffers                    20            20            36            28
 MEMORY| Cached                2139436        617264       2139436       1378350
 MEMORY| Slab                  1475640       1413580       1475640       1444610
 MEMORY| SReclaimable           244576        229880        244576        237228
 MEMORY| MemLikelyFree       220367188     216728940     220367560     218548083


 *** Fundamental physical constants (SI units) ***

 *** Literature: B. J. Mohr and B. N. Taylor,
 ***             CODATA recommended values of the fundamental physical
 ***             constants: 2006, Web Version 5.1
 ***             http://physics.nist.gov/constants

 Speed of light in vacuum [m/s]                             2.99792458000000E+08
 Magnetic constant or permeability of vacuum [N/A**2]       1.25663706143592E-06
 Electric constant or permittivity of vacuum [F/m]          8.85418781762039E-12
 Planck constant (h) [J*s]                                  6.62606896000000E-34
 Planck constant (h-bar) [J*s]                              1.05457162825177E-34
 Elementary charge [C]                                      1.60217648700000E-19
 Electron mass [kg]                                         9.10938215000000E-31
 Electron g factor [ ]                                     -2.00231930436220E+00
 Proton mass [kg]                                           1.67262163700000E-27
 Fine-structure constant                                    7.29735253760000E-03
 Rydberg constant [1/m]                                     1.09737315685270E+07
 Avogadro constant [1/mol]                                  6.02214179000000E+23
 Boltzmann constant [J/K]                                   1.38065040000000E-23
 Atomic mass unit [kg]                                      1.66053878200000E-27
 Bohr radius [m]                                            5.29177208590000E-11

 *** Conversion factors ***

 [u] -> [a.u.]                                              1.82288848426455E+03
 [Angstrom] -> [Bohr] = [a.u.]                              1.88972613288564E+00
 [a.u.] = [Bohr] -> [Angstrom]                              5.29177208590000E-01
 [a.u.] -> [s]                                              2.41888432650478E-17
 [a.u.] -> [fs]                                             2.41888432650478E-02
 [a.u.] -> [J]                                              4.35974393937059E-18
 [a.u.] -> [N]                                              8.23872205491840E-08
 [a.u.] -> [K]                                              3.15774647902944E+05
 [a.u.] -> [kJ/mol]                                         2.62549961709828E+03
 [a.u.] -> [kcal/mol]                                       6.27509468713739E+02
 [a.u.] -> [Pa]                                             2.94210107994716E+13
 [a.u.] -> [bar]                                            2.94210107994716E+08
 [a.u.] -> [atm]                                            2.90362800883016E+08
 [a.u.] -> [eV]                                             2.72113838565563E+01
 [a.u.] -> [Hz]                                             6.57968392072181E+15
 [a.u.] -> [1/cm] (wave numbers)                            2.19474631370540E+05
 [a.u./Bohr**2] -> [1/cm]                                   5.14048714338585E+03
 

 CELL_TOP| Volume [angstrom^3]:                                     17614.982639
 CELL_TOP| Vector a [angstrom    16.869     0.000     0.000   |a| =    16.869000
 CELL_TOP| Vector b [angstrom    -8.434    14.609     0.000   |b| =    16.869015
 CELL_TOP| Vector c [angstrom     0.000     0.000    71.478   |c| =    71.478000
 CELL_TOP| Angle (b,c), alpha [degree]:                                90.000000
 CELL_TOP| Angle (a,c), beta  [degree]:                                90.000000
 CELL_TOP| Angle (a,b), gamma [degree]:                               119.999970
 CELL_TOP| Numerically orthorhombic:                                          NO
 
 GENERATE|  Preliminary Number of Bonds generated:                             0
 GENERATE|  Achieved consistency in connectivity generation.

 CELL| Volume [angstrom^3]:                                         17614.982639
 CELL| Vector a [angstrom]:      16.869     0.000     0.000   |a| =    16.869000
 CELL| Vector b [angstrom]:      -8.434    14.609     0.000   |b| =    16.869015
 CELL| Vector c [angstrom]:       0.000     0.000    71.478   |c| =    71.478000
 CELL| Angle (b,c), alpha [degree]:                                    90.000000
 CELL| Angle (a,c), beta  [degree]:                                    90.000000
 CELL| Angle (a,b), gamma [degree]:                                   119.999970
 CELL| Numerically orthorhombic:                                              NO

 CELL_REF| Volume [angstrom^3]:                                     17614.982639
 CELL_REF| Vector a [angstrom    16.869     0.000     0.000   |a| =    16.869000
 CELL_REF| Vector b [angstrom    -8.434    14.609     0.000   |b| =    16.869015
 CELL_REF| Vector c [angstrom     0.000     0.000    71.478   |c| =    71.478000
 CELL_REF| Angle (b,c), alpha [degree]:                                90.000000
 CELL_REF| Angle (a,c), beta  [degree]:                                90.000000
 CELL_REF| Angle (a,b), gamma [degree]:                               119.999970
 CELL_REF| Numerically orthorhombic:                                          NO

 *******************************************************************************
 *******************************************************************************
 **                                                                           **
 **     #####                         ##              ##                      **
 **    ##   ##            ##          ##              ##                      **
 **   ##     ##                       ##            ######                    **
 **   ##     ##  ##   ##  ##   #####  ##  ##   ####   ##    #####    #####    **
 **   ##     ##  ##   ##  ##  ##      ## ##   ##      ##   ##   ##  ##   ##   **
 **   ##  ## ##  ##   ##  ##  ##      ####     ###    ##   ######   ######    **
 **    ##  ###   ##   ##  ##  ##      ## ##      ##   ##   ##       ##        **
 **     #######   #####   ##   #####  ##  ##  ####    ##    #####   ##        **
 **           ##                                                    ##        **
 **                                                                           **
 **                                                ... make the atoms dance   **
 **                                                                           **
 **            Copyright (C) by CP2K developers group (2000-2022)             **
 **                      J. Chem. Phys. 152, 194103 (2020)                    **
 **                                                                           **
 *******************************************************************************

 DFT| Spin restricted Kohn-Sham (RKS) calculation                            RKS
 DFT| Multiplicity                                                             1
 DFT| Number of spin states                                                    1
 DFT| Charge                                                                   0
 DFT| Self-interaction correction (SIC)                                       NO
 DFT| Cutoffs: density                                              1.000000E-10
 DFT|          gradient                                             1.000000E-10
 DFT|          tau                                                  1.000000E-10
 DFT|          cutoff_smoothing_range                               0.000000E+00
 DFT| XC density smoothing                                                  NONE
 DFT| XC derivatives                                                          PW

 FUNCTIONAL| PBE:
 FUNCTIONAL| J.P.Perdew, K.Burke, M.Ernzerhof, Phys. Rev. Letter, vol. 77, n 18,
 FUNCTIONAL|  pp. 3865-3868, (1996){spin unpolarized}                           

 vdW POTENTIAL|                                                   Pair Potential
 vdW POTENTIAL|          DFT-D3 (Version 3.1)
 vdW POTENTIAL|          Potential Form: S. Grimme et al, JCP 132: 154104 (2010)
 vdW POTENTIAL|          Zero Damping
 vdW POTENTIAL|          Cutoff Radius [Bohr]:                             20.00
 vdW POTENTIAL|          s6 Scaling Factor:                               1.0000
 vdW POTENTIAL|          sr6 Scaling Factor:                              1.2170
 vdW POTENTIAL|          s8 Scaling Factor:                               0.7220
 vdW POTENTIAL|          Cutoff for CN calculation:                   0.1000E-05

 QS| Method:                                                                 GPW
 QS| Density plane wave grid type                        NON-SPHERICAL FULLSPACE
 QS| Number of grid levels:                                                    4
 QS| Density cutoff [a.u.]:                                                200.0
 QS| Multi grid cutoff [a.u.]: 1) grid level                               200.0
 QS|                           2) grid level                                66.7
 QS|                           3) grid level                                22.2
 QS|                           4) grid level                                 7.4
 QS| Grid level progression factor:                                          3.0
 QS| Relative density cutoff [a.u.]:                                        20.0
 QS| Interaction thresholds: eps_pgf_orb:                                3.2E-07
 QS|                         eps_filter_matrix:                          0.0E+00
 QS|                         eps_core_charge:                            1.0E-15
 QS|                         eps_rho_gspace:                             1.0E-13
 QS|                         eps_rho_rspace:                             1.0E-13
 QS|                         eps_gvg_rspace:                             3.2E-07
 QS|                         eps_ppl:                                    1.0E-02
 QS|                         eps_ppnl:                                   3.2E-09


 ATOMIC KIND INFORMATION

  1. Atomic kind: O                                     Number of atoms:      98

     Orbital Basis Set                                        DZVP-MOLOPT-SR-GTH

       Number of orbital shell sets:                                           1
       Number of orbital shells:                                               5
       Number of primitive Cartesian functions:                                5
       Number of Cartesian basis functions:                                   14
       Number of spherical basis functions:                                   13
       Norm type:                                                              2

       Normalised Cartesian orbitals:

                        Set   Shell   Orbital            Exponent    Coefficient

                          1       1    2s               10.389228       0.396646
                                                         3.849621       0.208811
                                                         1.388401      -0.301641
                                                         0.496955      -0.274061
                                                         0.162492      -0.033677

                          1       2    3s               10.389228       0.303673
                                                         3.849621       0.240943
                                                         1.388401      -0.313066
                                                         0.496955      -0.043055
                                                         0.162492       0.213991

                          1       3    3px              10.389228      -1.530415
                                                         3.849621      -1.371928
                                                         1.388401      -0.761951
                                                         0.496955      -0.253695
                                                         0.162492      -0.035541
                          1       3    3py              10.389228      -1.530415
                                                         3.849621      -1.371928
                                                         1.388401      -0.761951
                                                         0.496955      -0.253695
                                                         0.162492      -0.035541
                          1       3    3pz              10.389228      -1.530415
                                                         3.849621      -1.371928
                                                         1.388401      -0.761951
                                                         0.496955      -0.253695
                                                         0.162492      -0.035541

                          1       4    4px              10.389228      -0.565392
                                                         3.849621      -0.038231
                                                         1.388401      -0.382373
                                                         0.496955       0.179070
                                                         0.162492       0.122714
                          1       4    4py              10.389228      -0.565392
                                                         3.849621      -0.038231
                                                         1.388401      -0.382373
                                                         0.496955       0.179070
                                                         0.162492       0.122714
                          1       4    4pz              10.389228      -0.565392
                                                         3.849621      -0.038231
                                                         1.388401      -0.382373
                                                         0.496955       0.179070
                                                         0.162492       0.122714

                          1       5    4dx2             10.389228       1.867377
                                                         3.849621       0.670994
                                                         1.388401       1.353441
                                                         0.496955       0.273538
                                                         0.162492       0.006620
                          1       5    4dxy             10.389228       3.234392
                                                         3.849621       1.162195
                                                         1.388401       2.344229
                                                         0.496955       0.473781
                                                         0.162492       0.011466
                          1       5    4dxz             10.389228       3.234392
                                                         3.849621       1.162195
                                                         1.388401       2.344229
                                                         0.496955       0.473781
                                                         0.162492       0.011466
                          1       5    4dy2             10.389228       1.867377
                                                         3.849621       0.670994
                                                         1.388401       1.353441
                                                         0.496955       0.273538
                                                         0.162492       0.006620
                          1       5    4dyz             10.389228       3.234392
                                                         3.849621       1.162195
                                                         1.388401       2.344229
                                                         0.496955       0.473781
                                                         0.162492       0.011466
                          1       5    4dz2             10.389228       1.867377
                                                         3.849621       0.670994
                                                         1.388401       1.353441
                                                         0.496955       0.273538
                                                         0.162492       0.006620

       Atomic covalent radius [Angstrom]:                                  0.730

       Atomic van der Waals radius [Angstrom]:                             1.520

     GTH Potential information for                                    GTH-PBE-q6

       Description:                       Goedecker-Teter-Hutter pseudopotential
                                           Goedecker et al., PRB 54, 1703 (1996)
                                          Hartwigsen et al., PRB 58, 3641 (1998)
                                                      Krack, TCA 114, 145 (2005)

       Gaussian exponent of the core charge distribution:               8.360253
       Electronic configuration (s p d ...):                               2   4

       Parameters of the local part of the GTH pseudopotential:

                          rloc        C1          C2          C3          C4
                        0.244554  -16.667215    2.487311

       Parameters of the non-local part of the GTH pseudopotential:

                   l      r(l)      h(i,j,l)

                   0    0.220956   18.337458
                   1    0.211332

  2. Atomic kind: H                                     Number of atoms:     196

     Orbital Basis Set                                        DZVP-MOLOPT-SR-GTH

       Number of orbital shell sets:                                           1
       Number of orbital shells:                                               3
       Number of primitive Cartesian functions:                                5
       Number of Cartesian basis functions:                                    5
       Number of spherical basis functions:                                    5
       Norm type:                                                              2

       Normalised Cartesian orbitals:

                        Set   Shell   Orbital            Exponent    Coefficient

                          1       1    2s               10.068468      -0.133023
                                                         2.680223      -0.177618
                                                         0.791502      -0.258419
                                                         0.239116      -0.107525
                                                         0.082193      -0.014019

                          1       2    3s               10.068468       0.344673
                                                         2.680223       1.819821
                                                         0.791502      -0.999069
                                                         0.239116       0.017430
                                                         0.082193       0.082660

                          1       3    3px              10.068468       0.155326
                                                         2.680223       0.367157
                                                         0.791502       0.311480
                                                         0.239116       0.080105
                                                         0.082193       0.033440
                          1       3    3py              10.068468       0.155326
                                                         2.680223       0.367157
                                                         0.791502       0.311480
                                                         0.239116       0.080105
                                                         0.082193       0.033440
                          1       3    3pz              10.068468       0.155326
                                                         2.680223       0.367157
                                                         0.791502       0.311480
                                                         0.239116       0.080105
                                                         0.082193       0.033440

       Atomic covalent radius [Angstrom]:                                  0.320

       Atomic van der Waals radius [Angstrom]:                             1.090

     GTH Potential information for                                    GTH-PBE-q1

       Description:                       Goedecker-Teter-Hutter pseudopotential
                                           Goedecker et al., PRB 54, 1703 (1996)
                                          Hartwigsen et al., PRB 58, 3641 (1998)
                                                      Krack, TCA 114, 145 (2005)

       Gaussian exponent of the core charge distribution:              12.500000
       Electronic configuration (s p d ...):                                   1

       Parameters of the local part of the GTH pseudopotential:

                          rloc        C1          C2          C3          C4
                        0.200000   -4.178900    0.724463

  3. Atomic kind: Pt                                    Number of atoms:     216

     Orbital Basis Set                      DZVP-A5-Q10-323-MOL-T1-DERIVED_SET-1

       Number of orbital shell sets:                                           1
       Number of orbital shells:                                               6
       Number of primitive Cartesian functions:                                5
       Number of Cartesian basis functions:                                   23
       Number of spherical basis functions:                                   20
       Norm type:                                                              2

       Normalised Cartesian orbitals:

                        Set   Shell   Orbital            Exponent    Coefficient

                          1       1    2s                2.521825       0.177473
                                                         1.453920      -0.063399
                                                         0.614053      -0.407089
                                                         0.232656       0.262254
                                                         0.074788       0.047371

                          1       2    3s                2.521825      -0.049056
                                                         1.453920       0.044904
                                                         0.614053      -0.009756
                                                         0.232656      -0.144709
                                                         0.074788       0.144085

                          1       3    3px               2.521825      -0.317572
                                                         1.453920       0.534826
                                                         0.614053      -0.489458
                                                         0.232656       0.245631
                                                         0.074788       0.018221
                          1       3    3py               2.521825      -0.317572
                                                         1.453920       0.534826
                                                         0.614053      -0.489458
                                                         0.232656       0.245631
                                                         0.074788       0.018221
                          1       3    3pz               2.521825      -0.317572
                                                         1.453920       0.534826
                                                         0.614053      -0.489458
                                                         0.232656       0.245631
                                                         0.074788       0.018221

                          1       4    4dx2              2.521825       3.008522
                                                         1.453920      -1.224251
                                                         0.614053       0.225691
                                                         0.232656       0.125144
                                                         0.074788      -0.015348
                          1       4    4dxy              2.521825       5.210912
                                                         1.453920      -2.120465
                                                         0.614053       0.390909
                                                         0.232656       0.216756
                                                         0.074788      -0.026584
                          1       4    4dxz              2.521825       5.210912
                                                         1.453920      -2.120465
                                                         0.614053       0.390909
                                                         0.232656       0.216756
                                                         0.074788      -0.026584
                          1       4    4dy2              2.521825       3.008522
                                                         1.453920      -1.224251
                                                         0.614053       0.225691
                                                         0.232656       0.125144
                                                         0.074788      -0.015348
                          1       4    4dyz              2.521825       5.210912
                                                         1.453920      -2.120465
                                                         0.614053       0.390909
                                                         0.232656       0.216756
                                                         0.074788      -0.026584
                          1       4    4dz2              2.521825       3.008522
                                                         1.453920      -1.224251
                                                         0.614053       0.225691
                                                         0.232656       0.125144
                                                         0.074788      -0.015348

                          1       5    5dx2              2.521825       0.698026
                                                         1.453920      -1.511486
                                                         0.614053      -0.335394
                                                         0.232656      -0.025564
                                                         0.074788      -0.002699
                          1       5    5dxy              2.521825       1.209017
                                                         1.453920      -2.617970
                                                         0.614053      -0.580920
                                                         0.232656      -0.044277
                                                         0.074788      -0.004674
                          1       5    5dxz              2.521825       1.209017
                                                         1.453920      -2.617970
                                                         0.614053      -0.580920
                                                         0.232656      -0.044277
                                                         0.074788      -0.004674
                          1       5    5dy2              2.521825       0.698026
                                                         1.453920      -1.511486
                                                         0.614053      -0.335394
                                                         0.232656      -0.025564
                                                         0.074788      -0.002699
                          1       5    5dyz              2.521825       1.209017
                                                         1.453920      -2.617970
                                                         0.614053      -0.580920
                                                         0.232656      -0.044277
                                                         0.074788      -0.004674
                          1       5    5dz2              2.521825       0.698026
                                                         1.453920      -1.511486
                                                         0.614053      -0.335394
                                                         0.232656      -0.025564
                                                         0.074788      -0.002699

                          1       6    6dx2              2.521825       0.831079
                                                         1.453920      -0.709226
                                                         0.614053      -0.137351
                                                         0.232656       0.068642
                                                         0.074788       0.011745
                          1       6    6dxy              2.521825       1.439472
                                                         1.453920      -1.228415
                                                         0.614053      -0.237899
                                                         0.232656       0.118891
                                                         0.074788       0.020343
                          1       6    6dxz              2.521825       1.439472
                                                         1.453920      -1.228415
                                                         0.614053      -0.237899
                                                         0.232656       0.118891
                                                         0.074788       0.020343
                          1       6    6dy2              2.521825       0.831079
                                                         1.453920      -0.709226
                                                         0.614053      -0.137351
                                                         0.232656       0.068642
                                                         0.074788       0.011745
                          1       6    6dyz              2.521825       1.439472
                                                         1.453920      -1.228415
                                                         0.614053      -0.237899
                                                         0.232656       0.118891
                                                         0.074788       0.020343
                          1       6    6dz2              2.521825       0.831079
                                                         1.453920      -0.709226
                                                         0.614053      -0.137351
                                                         0.232656       0.068642
                                                         0.074788       0.011745

       Atomic covalent radius [Angstrom]:                                  1.300

       Atomic van der Waals radius [Angstrom]:                             1.750

     GTH Potential information for                                   GTH-PBE-q10

       Description:                       Goedecker-Teter-Hutter pseudopotential
                                           Goedecker et al., PRB 54, 1703 (1996)
                                          Hartwigsen et al., PRB 58, 3641 (1998)
                                                      Krack, TCA 114, 145 (2005)

       Gaussian exponent of the core charge distribution:               1.317676
       Electronic configuration (s p d ...):                           1   0   9

       Parameters of the local part of the GTH pseudopotential:

                          rloc        C1          C2          C3          C4
                        0.616000   11.313635

       Parameters of the non-local part of the GTH pseudopotential:

                   l      r(l)      h(i,j,l)

                   0    0.550904    4.733491   -1.784594
                                   -1.784594    2.303901
                   1    0.674138    2.534798   -1.778066
                                   -1.778066    2.103836
                   2    0.457392   -7.264011    2.558665
                                    2.558665   -2.901253


 MOLECULE KIND INFORMATION


 All atoms are their own molecule, skipping detailed information


 TOTAL NUMBERS AND MAXIMUM NUMBERS

  Total number of            - Atomic kinds:                                   3
                             - Atoms:                                        510
                             - Shell sets:                                   510
                             - Shells:                                      2374
                             - Primitive Cartesian functions:               2550
                             - Cartesian basis functions:                   7320
                             - Spherical basis functions:                   6574

  Maximum angular momentum of- Orbital basis functions:                        2
                             - Local part of the GTH pseudopotential:          2
                             - Non-local part of the GTH pseudopotential:      4


 MODULE QUICKSTEP:  ATOMIC COORDINATES IN angstrom

 Atom  Kind  Element       X           Y           Z          Z(eff)       Mass
    1   1 O    8      12.370001  -28.100002   39.247999       6.0000     15.9994
    2   2 H    1      12.790001  -27.550001   40.027998       1.0000      1.0079
    3   2 H    1      12.700001  -27.620001   38.468000       1.0000      1.0079
    4   1 O    8     -17.690001    2.960000   33.717998       6.0000     15.9994
    5   2 H    1     -17.930000    2.900000   34.718000       1.0000      1.0079
    6   2 H    1     -18.090002    2.070000   33.347997       1.0000      1.0079
    7   1 O    8     -42.580002  -29.670002   37.847999       6.0000     15.9994
    8   2 H    1     -42.340004  -29.700001   36.887998       1.0000      1.0079
    9   2 H    1     -43.270000  -29.010000   37.857998       1.0000      1.0079
   10   1 O    8     -14.740001  -19.000000   37.717998       6.0000     15.9994
   11   2 H    1     -15.530001  -19.300001   37.267998       1.0000      1.0079
   12   2 H    1     -14.390000  -18.130001   37.337997       1.0000      1.0079
   13   1 O    8      -7.850000  -16.690001   29.977999       6.0000     15.9994
   14   2 H    1      -8.030001  -17.590000   29.608000       1.0000      1.0079
   15   2 H    1      -8.260000  -16.030001   29.328001       1.0000      1.0079
   16   1 O    8       5.380001   21.330002   34.567999       6.0000     15.9994
   17   2 H    1       4.990000   22.220001   34.297998       1.0000      1.0079
   18   2 H    1       4.650001   20.889999   35.027998       1.0000      1.0079
   19   1 O    8     -19.150002   22.790001   29.187998       6.0000     15.9994
   20   2 H    1     -19.440001   23.710001   29.507997       1.0000      1.0079
   21   2 H    1     -19.600000   21.990002   29.667997       1.0000      1.0079
   22   1 O    8      -1.190000  -10.140000   35.868000       6.0000     15.9994
   23   2 H    1      -0.400000  -10.740000   35.847997       1.0000      1.0079
   24   2 H    1      -0.960000   -9.400001   35.227999       1.0000      1.0079
   25   1 O    8     -17.380001   38.760002   33.887998       6.0000     15.9994
   26   2 H    1     -18.120001   38.440002   33.387998       1.0000      1.0079
   27   2 H    1      -0.860000   39.680000   34.157999       1.0000      1.0079
   28   1 O    8      -3.620000    9.420000   37.638000       6.0000     15.9994
   29   2 H    1     -11.180000   23.820002   38.087999       1.0000      1.0079
   30   2 H    1      -4.180000    8.630000   37.538000       1.0000      1.0079
   31   1 O    8       5.690000   12.990000   29.167997       6.0000     15.9994
   32   2 H    1       5.540000   12.000000   29.437998       1.0000      1.0079
   33   2 H    1       4.830000   13.530001   29.398001       1.0000      1.0079
   34   1 O    8     -22.440002   -0.480000   33.207998       6.0000     15.9994
   35   2 H    1     -22.100000   -0.470000   32.307997       1.0000      1.0079
   36   2 H    1     -22.139999   -1.320000   33.587997       1.0000      1.0079
   37   1 O    8      -6.250000    5.110001   32.627998       6.0000     15.9994
   38   2 H    1      -5.400000    4.590000   32.387998       1.0000      1.0079
   39   2 H    1      -5.930000    5.840001   33.267999       1.0000      1.0079
   40   1 O    8     -37.640003   32.010002   36.837999       6.0000     15.9994
   41   2 H    1     -37.910000   31.560001   36.047998       1.0000      1.0079
   42   2 H    1     -36.710003   31.800001   36.987999       1.0000      1.0079
   43   1 O    8     -20.030001   11.710000   32.358000       6.0000     15.9994
   44   2 H    1     -29.220001   26.200001   31.717996       1.0000      1.0079
   45   2 H    1     -20.100000   10.910001   32.938000       1.0000      1.0079
   46   1 O    8     -39.440002   14.210001   31.128000       6.0000     15.9994
   47   2 H    1     -38.630001   14.700001   30.857998       1.0000      1.0079
   48   2 H    1     -40.130001   14.780001   30.637998       1.0000      1.0079
   49   1 O    8     -14.690001   -3.010000   35.027998       6.0000     15.9994
   50   2 H    1     -15.510001   -3.030000   35.617998       1.0000      1.0079
   51   2 H    1     -14.670001   -2.200000   34.397999       1.0000      1.0079
   52   1 O    8     -30.120001   11.450001   33.847997       6.0000     15.9994
   53   2 H    1     -29.420002   10.910001   33.438000       1.0000      1.0079
   54   2 H    1     -30.930002   10.900001   33.687998       1.0000      1.0079
   55   1 O    8       2.870000   -6.920000   36.847999       6.0000     15.9994
   56   2 H    1       2.940000   -7.910000   37.048000       1.0000      1.0079
   57   2 H    1       1.990000   -6.770000   37.227999       1.0000      1.0079
   58   1 O    8     -54.780003  -10.980000   35.027998       6.0000     15.9994
   59   2 H    1     -37.580002  -10.710001   35.977999       1.0000      1.0079
   60   2 H    1     -37.220001  -10.820000   34.327999       1.0000      1.0079
   61   1 O    8      -8.640000   23.880001   36.597999       6.0000     15.9994
   62   2 H    1      -8.870000   24.110001   35.677999       1.0000      1.0079
   63   2 H    1      -9.150001   24.530001   37.188000       1.0000      1.0079
   64   1 O    8       0.840000   -5.290000   30.277998       6.0000     15.9994
   65   2 H    1       0.450000   -5.980001   30.797998       1.0000      1.0079
   66   2 H    1       0.740000   -5.530000   29.328001       1.0000      1.0079
   67   1 O    8     -26.290001   17.420002   36.567999       6.0000     15.9994
   68   2 H    1     -26.160002   18.160002   37.227999       1.0000      1.0079
   69   2 H    1     -25.530003   16.850000   36.688000       1.0000      1.0079
   70   1 O    8       6.050000    3.870000   33.038000       6.0000     15.9994
   71   2 H    1       6.930000    3.820000   33.407999       1.0000      1.0079
   72   2 H    1       5.900001    4.800000   32.778000       1.0000      1.0079
   73   1 O    8      25.350000    7.770000   37.288000       6.0000     15.9994
   74   2 H    1      24.750002    8.560000   37.118000       1.0000      1.0079
   75   2 H    1      25.070002    7.390000   38.217998       1.0000      1.0079
   76   1 O    8      38.180000    5.460000   29.927999       6.0000     15.9994
   77   2 H    1      37.290001    5.030000   29.937998       1.0000      1.0079
   78   2 H    1      38.800003    4.710000   30.017999       1.0000      1.0079
   79   1 O    8     -19.920002   36.760002   30.508001       6.0000     15.9994
   80   2 H    1     -20.540001   37.490002   30.247999       1.0000      1.0079
   81   2 H    1     -19.030001   37.120003   30.547998       1.0000      1.0079
   82   1 O    8      11.170001    5.200000   37.417999       6.0000     15.9994
   83   2 H    1      10.510000    5.130000   38.137998       1.0000      1.0079
   84   2 H    1      11.840000    4.530000   37.547998       1.0000      1.0079
   85   1 O    8      16.470001   -2.210000   32.837999       6.0000     15.9994
   86   2 H    1      16.750000   -2.090000   31.917999       1.0000      1.0079
   87   2 H    1      17.210001   -1.890000   33.377998       1.0000      1.0079
   88   1 O    8      12.070000   -0.570000   30.277998       6.0000     15.9994
   89   2 H    1      11.430000   -1.250000   30.148001       1.0000      1.0079
   90   2 H    1      11.670000    0.320000   30.157999       1.0000      1.0079
   91   1 O    8       4.670000   -5.370000   34.097999       6.0000     15.9994
   92   2 H    1       3.740000   -5.360000   33.628000       1.0000      1.0079
   93   2 H    1       4.360000   -5.200000   35.027998       1.0000      1.0079
   94   1 O    8      -7.070000   -7.190001   30.387998       6.0000     15.9994
   95   2 H    1      -6.830000   -7.450001   29.447996       1.0000      1.0079
   96   2 H    1      -7.720000   -6.370000   30.197996       1.0000      1.0079
   97   1 O    8      38.100002  -22.900002   38.737999       6.0000     15.9994
   98   2 H    1      38.070000  -22.280003   37.968000       1.0000      1.0079
   99   2 H    1      38.970001  -22.580002   39.188000       1.0000      1.0079
  100   1 O    8      10.300001  -11.670000   36.737999       6.0000     15.9994
  101   2 H    1       2.330000    2.240000   36.267999       1.0000      1.0079
  102   2 H    1      10.430001  -10.920000   36.128000       1.0000      1.0079
  103   1 O    8     -28.400002   33.200001   37.667997       6.0000     15.9994
  104   2 H    1     -10.750000   33.460003   37.137998       1.0000      1.0079
  105   2 H    1     -28.650002   34.040001   38.117998       1.0000      1.0079
  106   1 O    8      26.920002  -10.690001   33.207998       6.0000     15.9994
  107   2 H    1      26.170002  -11.280001   33.417997       1.0000      1.0079
  108   2 H    1      27.720001  -11.040001   33.517998       1.0000      1.0079
  109   1 O    8       2.070000    9.340000   33.247999       6.0000     15.9994
  110   2 H    1       1.110000    9.120001   33.398001       1.0000      1.0079
  111   2 H    1       2.560000    8.690001   33.757999       1.0000      1.0079
  112   1 O    8     -17.830002   12.020000   30.717998       6.0000     15.9994
  113   2 H    1     -16.860001   12.050000   30.857998       1.0000      1.0079
  114   2 H    1     -18.250000   12.090001   31.597999       1.0000      1.0079
  115   1 O    8       2.180000   -4.870000   33.207998       6.0000     15.9994
  116   2 H    1       1.920000   -4.460000   32.358000       1.0000      1.0079
  117   2 H    1       2.010000   -4.030000   33.887998       1.0000      1.0079
  118   1 O    8     -19.540001   -1.000000   38.807998       6.0000     15.9994
  119   2 H    1     -20.140001   -0.270000   39.058000       1.0000      1.0079
  120   2 H    1     -20.120001   -1.730000   39.017999       1.0000      1.0079
  121   1 O    8      -5.000000   -7.200000   34.457998       6.0000     15.9994
  122   2 H    1      -5.600000   -7.860000   34.907997       1.0000      1.0079
  123   2 H    1      -4.430000   -6.850000   35.238001       1.0000      1.0079
  124   1 O    8     -24.000000   45.950005   39.587999       6.0000     15.9994
  125   2 H    1     -23.660002   46.380001   38.807998       1.0000      1.0079
  126   2 H    1     -23.330002   46.049999   40.278000       1.0000      1.0079
  127   1 O    8     -15.320001  -14.440001   39.767998       6.0000     15.9994
  128   2 H    1     -14.550000  -13.960000   39.358000       1.0000      1.0079
  129   2 H    1     -15.910001  -14.620000   38.967998       1.0000      1.0079
  130   1 O    8      15.280001   29.820002   30.187998       6.0000     15.9994
  131   2 H    1      23.600002   15.060000   31.167999       1.0000      1.0079
  132   2 H    1      -2.020000   29.030001   29.817999       1.0000      1.0079
  133   1 O    8       1.410000  -11.800001   36.097999       6.0000     15.9994
  134   2 H    1       1.300000  -11.500001   35.137998       1.0000      1.0079
  135   2 H    1       1.880000  -11.160001   36.607998       1.0000      1.0079
  136   1 O    8       0.280000   17.920000   33.557997       6.0000     15.9994
  137   2 H    1       0.830000   18.450001   32.948000       1.0000      1.0079
  138   2 H    1       0.040000   17.000000   33.247999       1.0000      1.0079
  139   1 O    8     -25.190001    4.500000   29.937998       6.0000     15.9994
  140   2 H    1     -24.830000    4.110000   29.097998       1.0000      1.0079
  141   2 H    1     -24.980001    5.460000   29.797998       1.0000      1.0079
  142   1 O    8     -14.640001   -0.870000   33.647999       6.0000     15.9994
  143   2 H    1     -14.410001   -0.740000   32.677999       1.0000      1.0079
  144   2 H    1     -14.130001   -0.160000   34.037998       1.0000      1.0079
  145   1 O    8      -9.100000   -5.460000   29.967996       6.0000     15.9994
  146   2 H    1      -9.510000   -4.570000   30.047998       1.0000      1.0079
  147   2 H    1      -9.310000   -5.670000   28.968000       1.0000      1.0079
  148   1 O    8       3.530000   -2.800000   30.367998       6.0000     15.9994
  149   2 H    1       2.720000   -2.260000   30.308000       1.0000      1.0079
  150   2 H    1       3.300000   -3.660000   29.937998       1.0000      1.0079
  151   1 O    8      -1.230000   11.440001   38.187998       6.0000     15.9994
  152   2 H    1      -1.040000   12.400000   37.997997       1.0000      1.0079
  153   2 H    1      -0.500000   11.140001   38.747999       1.0000      1.0079
  154   1 O    8      27.460001   14.410001   39.037998       6.0000     15.9994
  155   2 H    1      27.130001   15.340000   39.177997       1.0000      1.0079
  156   2 H    1      28.290003   14.300001   39.657999       1.0000      1.0079
  157   1 O    8      21.100002   49.090004   29.317999       6.0000     15.9994
  158   2 H    1      21.620003   49.810005   29.847998       1.0000      1.0079
  159   2 H    1      21.600000   48.200001   29.367998       1.0000      1.0079
  160   1 O    8     -29.330002  -11.450001   32.087999       6.0000     15.9994
  161   2 H    1     -29.650002  -11.930000   31.297998       1.0000      1.0079
  162   2 H    1     -28.560001  -10.920000   31.817999       1.0000      1.0079
  163   1 O    8     -23.220001    7.200000   34.358000       6.0000     15.9994
  164   2 H    1     -22.910002    7.350000   35.278000       1.0000      1.0079
  165   2 H    1     -14.970001   -6.530001   34.077997       1.0000      1.0079
  166   1 O    8     -11.990000    0.980000   29.917997       6.0000     15.9994
  167   2 H    1     -11.630001    1.850000   29.777998       1.0000      1.0079
  168   2 H    1     -11.470001    0.360000   29.398001       1.0000      1.0079
  169   1 O    8     -13.370000   23.980000   29.817999       6.0000     15.9994
  170   2 H    1     -14.250001   23.710001   30.218000       1.0000      1.0079
  171   2 H    1     -13.390001   23.690002   28.857996       1.0000      1.0079
  172   1 O    8       7.590001   21.330002   36.028000       6.0000     15.9994
  173   2 H    1       6.790000   21.560001   35.487999       1.0000      1.0079
  174   2 H    1      16.300001    7.610001   36.397999       1.0000      1.0079
  175   1 O    8       0.170000   16.030001   29.747999       6.0000     15.9994
  176   2 H    1      -0.470000   16.720001   29.817999       1.0000      1.0079
  177   2 H    1      -0.050000   15.480001   28.937998       1.0000      1.0079
  178   1 O    8      25.330002   12.010001   36.587999       6.0000     15.9994
  179   2 H    1      24.510002   12.480001   36.477999       1.0000      1.0079
  180   2 H    1      25.630001   12.040001   37.547998       1.0000      1.0079
  181   1 O    8      -1.880000    0.480000   32.867998       6.0000     15.9994
  182   2 H    1      -2.710000    0.830000   33.298000       1.0000      1.0079
  183   2 H    1      -1.610000   -0.300000   33.407999       1.0000      1.0079
  184   1 O    8      14.420000   -4.090000   32.808000       6.0000     15.9994
  185   2 H    1      15.190001   -3.490000   32.948000       1.0000      1.0079
  186   2 H    1      14.930000   -4.950000   32.697998       1.0000      1.0079
  187   1 O    8     -29.340002   28.700001   37.477999       6.0000     15.9994
  188   2 H    1     -30.250000   28.680000   37.757997       1.0000      1.0079
  189   2 H    1     -29.200001   27.760000   36.977999       1.0000      1.0079
  190   1 O    8       6.680000    9.760000   36.887998       6.0000     15.9994
  191   2 H    1       6.510000    9.800000   37.907999       1.0000      1.0079
  192   2 H    1       7.290000   10.540000   36.647997       1.0000      1.0079
  193   1 O    8      -3.420000   -8.170000   32.537998       6.0000     15.9994
  194   2 H    1     -12.580000    6.660000   33.157999       1.0000      1.0079
  195   2 H    1      -3.870000   -8.390000   31.647997       1.0000      1.0079
  196   1 O    8      19.440001   12.320002   36.358000       6.0000     15.9994
  197   2 H    1      19.900002   12.160001   35.468000       1.0000      1.0079
  198   2 H    1      18.810001   12.970000   36.007999       1.0000      1.0079
  199   1 O    8       6.240000    9.810000   39.448000       6.0000     15.9994
  200   2 H    1       6.820001   10.620001   39.688000       1.0000      1.0079
  201   2 H    1       5.280000    9.950001   39.618000       1.0000      1.0079
  202   1 O    8      24.940002    0.820000   32.938000       6.0000     15.9994
  203   2 H    1      24.130001    0.320000   32.997997       1.0000      1.0079
  204   2 H    1      25.180000    0.740000   32.027998       1.0000      1.0079
  205   1 O    8      14.890001   37.880001   39.847999       6.0000     15.9994
  206   2 H    1      14.630001   36.959999   39.757999       1.0000      1.0079
  207   2 H    1      15.790001   37.920002   40.308000       1.0000      1.0079
  208   1 O    8     -40.380001   26.750002   30.257997       6.0000     15.9994
  209   2 H    1     -40.490002   26.770000   29.258001       1.0000      1.0079
  210   2 H    1     -39.980003   25.840000   30.308000       1.0000      1.0079
  211   1 O    8      -0.290000    4.850000   30.017999       6.0000     15.9994
  212   2 H    1      -0.280000    5.660000   29.587999       1.0000      1.0079
  213   2 H    1      -0.800000    5.030000   30.807998       1.0000      1.0079
  214   1 O    8     -28.520002   19.840000   39.637998       6.0000     15.9994
  215   2 H    1     -28.190002   19.590000   40.547998       1.0000      1.0079
  216   2 H    1     -29.250002   20.470001   39.757999       1.0000      1.0079
  217   1 O    8      14.320001  -26.060001   29.647997       6.0000     15.9994
  218   2 H    1      14.260001  -27.020000   29.757997       1.0000      1.0079
  219   2 H    1      15.220001  -25.710001   29.527998       1.0000      1.0079
  220   1 O    8     -13.060001   30.110001   35.177999       6.0000     15.9994
  221   2 H    1     -12.770000   29.860001   36.038000       1.0000      1.0079
  222   2 H    1     -12.660000   31.110001   35.087999       1.0000      1.0079
  223   1 O    8      11.410000   24.200001   30.837999       6.0000     15.9994
  224   2 H    1      10.910001   24.090002   31.698000       1.0000      1.0079
  225   2 H    1      11.070000   23.490002   30.288000       1.0000      1.0079
  226   1 O    8       7.890000    6.590000   34.727999       6.0000     15.9994
  227   2 H    1       7.900000    7.060000   35.557998       1.0000      1.0079
  228   2 H    1       8.870000    6.420000   34.537998       1.0000      1.0079
  229   1 O    8      35.370003    5.410000   35.357998       6.0000     15.9994
  230   2 H    1      35.290001    5.050000   34.407999       1.0000      1.0079
  231   2 H    1      34.680000    6.070001   35.457998       1.0000      1.0079
  232   1 O    8      -7.010000   41.010002   39.047998       6.0000     15.9994
  233   2 H    1      -6.370000   40.370003   39.377998       1.0000      1.0079
  234   2 H    1      -6.540000   41.900002   39.058000       1.0000      1.0079
  235   1 O    8      -3.760000  -17.540001   36.187998       6.0000     15.9994
  236   2 H    1      -3.630000  -18.280001   36.837999       1.0000      1.0079
  237   2 H    1      -4.750000  -17.650002   35.847997       1.0000      1.0079
  238   1 O    8       5.350000   10.590000   30.137998       6.0000     15.9994
  239   2 H    1       4.430000   10.270000   30.397997       1.0000      1.0079
  240   2 H    1       5.830000   10.580001   31.007999       1.0000      1.0079
  241   1 O    8     -32.380001   20.080002   39.797998       6.0000     15.9994
  242   2 H    1     -32.260002   19.280001   40.308000       1.0000      1.0079
  243   2 H    1     -32.050003   20.800001   40.337999       1.0000      1.0079
  244   1 O    8     -28.090000   -0.400000   33.597999       6.0000     15.9994
  245   2 H    1     -28.790001   -0.060000   34.157999       1.0000      1.0079
  246   2 H    1     -28.460003   -1.240000   33.177999       1.0000      1.0079
  247   1 O    8      14.940001  -24.330002   32.148001       6.0000     15.9994
  248   2 H    1      14.410001  -23.630001   32.577999       1.0000      1.0079
  249   2 H    1      15.280001  -24.799999   32.907999       1.0000      1.0079
  250   1 O    8     -27.760000   13.030001   35.917997       6.0000     15.9994
  251   2 H    1     -28.300001   12.350000   35.468000       1.0000      1.0079
  252   2 H    1     -28.410000   13.430000   36.558000       1.0000      1.0079
  253   1 O    8      -9.610001    8.220000   32.397999       6.0000     15.9994
  254   2 H    1      -9.180000    7.820001   33.257997       1.0000      1.0079
  255   2 H    1     -10.390000    7.610001   32.358000       1.0000      1.0079
  256   1 O    8      -1.390000   20.900002   39.927999       6.0000     15.9994
  257   2 H    1      -0.790000   21.440001   40.507999       1.0000      1.0079
  258   2 H    1      -0.780000   20.240002   39.507997       1.0000      1.0079
  259   1 O    8      14.640001   18.000000   30.317999       6.0000     15.9994
  260   2 H    1      14.570000   17.980001   31.307998       1.0000      1.0079
  261   2 H    1      15.490000   18.560001   30.117998       1.0000      1.0079
  262   1 O    8       0.890000   14.670001   35.257997       6.0000     15.9994
  263   2 H    1       0.900000   14.770001   34.297998       1.0000      1.0079
  264   2 H    1       1.180000   15.540000   35.567999       1.0000      1.0079
  265   1 O    8     -10.770000    1.400000   38.517998       6.0000     15.9994
  266   2 H    1     -11.440001    0.740000   38.298000       1.0000      1.0079
  267   2 H    1     -10.780001    2.350000   38.157999       1.0000      1.0079
  268   1 O    8      10.270000   35.930000   30.358000       6.0000     15.9994
  269   2 H    1      11.020000   35.600002   29.727999       1.0000      1.0079
  270   2 H    1      10.240001   35.390003   31.227999       1.0000      1.0079
  271   1 O    8      12.960000  -27.820000   34.267999       6.0000     15.9994
  272   2 H    1      12.870001  -27.110003   33.528000       1.0000      1.0079
  273   2 H    1      12.360001  -28.570002   33.958000       1.0000      1.0079
  274   1 O    8      -4.240000   23.050001   36.777998       6.0000     15.9994
  275   2 H    1      -3.460000   23.610001   36.997999       1.0000      1.0079
  276   2 H    1      -5.040000   23.570002   37.027998       1.0000      1.0079
  277   1 O    8      -6.080000   18.340000   30.497999       6.0000     15.9994
  278   2 H    1      -6.940000   18.760000   30.207998       1.0000      1.0079
  279   2 H    1      -6.280000   18.290001   31.467998       1.0000      1.0079
  280   1 O    8       1.240000    1.230000   29.747999       6.0000     15.9994
  281   2 H    1     -16.620001    1.140000   29.827997       1.0000      1.0079
  282   2 H    1       1.550000    2.090000   30.078001       1.0000      1.0079
  283   1 O    8      -9.560000   26.510000   35.287998       6.0000     15.9994
  284   2 H    1     -10.530001   26.350002   35.557998       1.0000      1.0079
  285   2 H    1      -9.490001   27.450001   34.907997       1.0000      1.0079
  286   1 O    8      16.040001  -24.260002   37.968000       6.0000     15.9994
  287   2 H    1      15.140000  -24.230001   38.287998       1.0000      1.0079
  288   2 H    1      16.020000  -23.510000   37.327999       1.0000      1.0079
  289   1 O    8     -14.060000   16.500000   29.777998       6.0000     15.9994
  290   2 H    1     -13.870001   16.490000   28.828001       1.0000      1.0079
  291   2 H    1     -14.990001   16.600000   29.757997       1.0000      1.0079
  292   1 O    8      -2.760000   12.960000   29.097998       6.0000     15.9994
  293   2 H    1      -3.540000   12.550001   29.497999       1.0000      1.0079
  294   2 H    1      -1.920000   12.630000   29.427999       1.0000      1.0079
  295   3 Pt  78       1.480000    0.900000   26.997999      10.0000    195.0840
  296   3 Pt  78       4.360000    0.940000   26.898001      10.0000    195.0840
  297   3 Pt  78       7.240000    0.630000   26.797998      10.0000    195.0840
  298   3 Pt  78      10.030001    0.730000   26.667997      10.0000    195.0840
  299   3 Pt  78      12.820001    0.970000   26.977999      10.0000    195.0840
  300   3 Pt  78      15.590000    0.880000   26.837999      10.0000    195.0840
  301   3 Pt  78       2.910000    3.320000   27.047998      10.0000    195.0840
  302   3 Pt  78       5.870000    3.290000   26.787996      10.0000    195.0840
  303   3 Pt  78       8.550000    3.190000   26.877996      10.0000    195.0840
  304   3 Pt  78      11.310000    3.280000   26.707998      10.0000    195.0840
  305   3 Pt  78      14.220000    3.340000   26.777998      10.0000    195.0840
  306   3 Pt  78       0.140000    3.210000   26.828001      10.0000    195.0840
  307   3 Pt  78       4.410000    5.640000   27.047998      10.0000    195.0840
  308   3 Pt  78       7.170000    5.640000   26.807997      10.0000    195.0840
  309   3 Pt  78       9.870001    5.620000   26.817999      10.0000    195.0840
  310   3 Pt  78      12.750001    5.710001   27.077997      10.0000    195.0840
  311   3 Pt  78      -1.190000    5.660000   26.847998      10.0000    195.0840
  312   3 Pt  78       1.660000    5.600000   27.077997      10.0000    195.0840
  313   3 Pt  78       5.770000    8.120001   26.997999      10.0000    195.0840
  314   3 Pt  78       8.550000    8.110001   26.887998      10.0000    195.0840
  315   3 Pt  78      11.270000    8.010000   27.017996      10.0000    195.0840
  316   3 Pt  78      -2.590000    8.070001   26.968000      10.0000    195.0840
  317   3 Pt  78       0.140000    8.100000   27.047998      10.0000    195.0840
  318   3 Pt  78       2.920000    8.060000   27.027998      10.0000    195.0840
  319   3 Pt  78       6.990001   10.640000   26.758001      10.0000    195.0840
  320   3 Pt  78      10.010000   10.450001   26.898001      10.0000    195.0840
  321   3 Pt  78      -4.100000   10.310000   27.017996      10.0000    195.0840
  322   3 Pt  78      -1.320000   10.530001   26.957998      10.0000    195.0840
  323   3 Pt  78       1.450000   10.460000   26.947996      10.0000    195.0840
  324   3 Pt  78       4.210001   10.570001   26.898001      10.0000    195.0840
  325   3 Pt  78       8.460000   13.080001   26.787996      10.0000    195.0840
  326   3 Pt  78      -5.590000   13.100000   26.898001      10.0000    195.0840
  327   3 Pt  78      -2.800000   12.970000   26.877996      10.0000    195.0840
  328   3 Pt  78       0.160000   12.900001   26.767999      10.0000    195.0840
  329   3 Pt  78       2.860000   12.930001   26.997999      10.0000    195.0840
  330   3 Pt  78       5.750000   12.960000   27.007997      10.0000    195.0840
  331   3 Pt  78       0.310000    1.490000   24.597998      10.0000    195.0840
  332   3 Pt  78       3.060000    1.600000   24.558000      10.0000    195.0840
  333   3 Pt  78       5.840001    1.290000   24.567999      10.0000    195.0840
  334   3 Pt  78       8.610001    1.370000   24.538000      10.0000    195.0840
  335   3 Pt  78      11.530000    1.580000   24.477999      10.0000    195.0840
  336   3 Pt  78      14.350000    1.550000   24.538000      10.0000    195.0840
  337   3 Pt  78       1.700000    4.140000   24.628000      10.0000    195.0840
  338   3 Pt  78       4.380000    4.050000   24.547998      10.0000    195.0840
  339   3 Pt  78       7.110000    3.860000   24.407999      10.0000    195.0840
  340   3 Pt  78       9.960001    3.990000   24.427999      10.0000    195.0840
  341   3 Pt  78      12.830001    3.940000   24.488001      10.0000    195.0840
  342   3 Pt  78      -1.150000    4.050000   24.427999      10.0000    195.0840
  343   3 Pt  78       3.060000    6.540000   24.667997      10.0000    195.0840
  344   3 Pt  78       5.830000    6.410000   24.587999      10.0000    195.0840
  345   3 Pt  78       8.580000    6.390000   24.497999      10.0000    195.0840
  346   3 Pt  78      11.440001    6.390000   24.577997      10.0000    195.0840
  347   3 Pt  78      -2.610000    6.340000   24.617998      10.0000    195.0840
  348   3 Pt  78       0.290000    6.510000   24.558000      10.0000    195.0840
  349   3 Pt  78       4.480000    8.860001   24.628000      10.0000    195.0840
  350   3 Pt  78       7.170000    8.910000   24.567999      10.0000    195.0840
  351   3 Pt  78      10.090000    8.820001   24.647997      10.0000    195.0840
  352   3 Pt  78      -4.040000    8.740000   24.608000      10.0000    195.0840
  353   3 Pt  78      -1.200000    8.840000   24.507997      10.0000    195.0840
  354   3 Pt  78       1.680000    8.880001   24.538000      10.0000    195.0840
  355   3 Pt  78       5.800000   11.410000   24.407999      10.0000    195.0840
  356   3 Pt  78       8.670000   11.300000   24.558000      10.0000    195.0840
  357   3 Pt  78      -5.390000   11.280001   24.577997      10.0000    195.0840
  358   3 Pt  78      -2.650000   11.210001   24.577997      10.0000    195.0840
  359   3 Pt  78       0.220000   11.240001   24.457998      10.0000    195.0840
  360   3 Pt  78       3.080000   11.310000   24.628000      10.0000    195.0840
  361   3 Pt  78       7.270000   13.730000   24.507997      10.0000    195.0840
  362   3 Pt  78      -6.780000   13.730000   24.597998      10.0000    195.0840
  363   3 Pt  78      -3.990000   13.620001   24.577997      10.0000    195.0840
  364   3 Pt  78      -1.220000   13.550000   24.447996      10.0000    195.0840
  365   3 Pt  78       1.760000   13.610001   24.457998      10.0000    195.0840
  366   3 Pt  78       4.570000   13.850001   24.677999      10.0000    195.0840
  367   3 Pt  78      -8.240001   14.540001   22.267996      10.0000    195.0840
  368   3 Pt  78      -5.440001   14.560001   22.288000      10.0000    195.0840
  369   3 Pt  78      -2.560000   14.430000   22.247999      10.0000    195.0840
  370   3 Pt  78       0.140000   14.370001   22.157999      10.0000    195.0840
  371   3 Pt  78       2.980000   14.470000   22.157999      10.0000    195.0840
  372   3 Pt  78       5.740000   14.570000   22.117998      10.0000    195.0840
  373   3 Pt  78       1.600000    2.440000   22.267996      10.0000    195.0840
  374   3 Pt  78       4.450000    2.390000   22.197996      10.0000    195.0840
  375   3 Pt  78       7.210000    2.340000   22.127996      10.0000    195.0840
  376   3 Pt  78       9.990001    2.160000   22.177999      10.0000    195.0840
  377   3 Pt  78      12.850000    2.280000   22.127996      10.0000    195.0840
  378   3 Pt  78      -1.170000    2.340000   22.108000      10.0000    195.0840
  379   3 Pt  78       3.060000    4.830000   22.257997      10.0000    195.0840
  380   3 Pt  78       5.840001    4.790000   22.237997      10.0000    195.0840
  381   3 Pt  78       8.750001    4.710000   22.097998      10.0000    195.0840
  382   3 Pt  78      11.380000    4.720000   22.157999      10.0000    195.0840
  383   3 Pt  78      -2.700000    4.730000   22.218000      10.0000    195.0840
  384   3 Pt  78       0.280000    4.790000   22.207998      10.0000    195.0840
  385   3 Pt  78       4.390000    7.310000   22.227999      10.0000    195.0840
  386   3 Pt  78       7.230001    7.150001   22.237997      10.0000    195.0840
  387   3 Pt  78       9.970000    7.260000   22.288000      10.0000    195.0840
  388   3 Pt  78      -4.100000    7.150001   22.218000      10.0000    195.0840
  389   3 Pt  78      -1.190000    7.180000   22.117998      10.0000    195.0840
  390   3 Pt  78       1.600000    7.190001   22.317999      10.0000    195.0840
  391   3 Pt  78       5.810000    9.640000   22.157999      10.0000    195.0840
  392   3 Pt  78       8.640000    9.640000   22.337999      10.0000    195.0840
  393   3 Pt  78      -5.380001    9.680000   22.327997      10.0000    195.0840
  394   3 Pt  78      -2.590000    9.570000   22.288000      10.0000    195.0840
  395   3 Pt  78       0.350000    9.600000   22.127996      10.0000    195.0840
  396   3 Pt  78       3.020000    9.680000   22.167997      10.0000    195.0840
  397   3 Pt  78       7.180000   12.160001   22.197996      10.0000    195.0840
  398   3 Pt  78      -6.920000   12.130001   22.327997      10.0000    195.0840
  399   3 Pt  78      -4.040000   12.080001   22.207998      10.0000    195.0840
  400   3 Pt  78      -1.190000   11.970000   22.157999      10.0000    195.0840
  401   3 Pt  78       1.560000   12.070000   22.087999      10.0000    195.0840
  402   3 Pt  78       4.340000   12.200001   22.197996      10.0000    195.0840
  403   3 Pt  78       1.600000    0.730000   20.070000      10.0000    195.0840
  404   3 Pt  78       4.440001    0.610000   20.020000      10.0000    195.0840
  405   3 Pt  78       7.230001    0.690000   19.880000      10.0000    195.0840
  406   3 Pt  78      10.010000    0.710000   19.770000      10.0000    195.0840
  407   3 Pt  78      12.830001    0.670000   19.760000      10.0000    195.0840
  408   3 Pt  78      15.560001    0.720000   19.830000      10.0000    195.0840
  409   3 Pt  78       2.970000    3.050000   19.910000      10.0000    195.0840
  410   3 Pt  78       5.720000    3.140000   19.880000      10.0000    195.0840
  411   3 Pt  78       8.540000    3.190000   19.860000      10.0000    195.0840
  412   3 Pt  78      11.350001    3.160000   19.900000      10.0000    195.0840
  413   3 Pt  78      14.170000    3.110000   19.800000      10.0000    195.0840
  414   3 Pt  78       0.160000    3.100000   19.810000      10.0000    195.0840
  415   3 Pt  78       4.370000    5.590000   19.860000      10.0000    195.0840
  416   3 Pt  78       7.220001    5.680000   19.910000      10.0000    195.0840
  417   3 Pt  78       9.950001    5.610001   19.840000      10.0000    195.0840
  418   3 Pt  78      12.730000    5.520000   19.890000      10.0000    195.0840
  419   3 Pt  78      -1.220000    5.560000   19.910000      10.0000    195.0840
  420   3 Pt  78       1.610000    5.490000   19.940000      10.0000    195.0840
  421   3 Pt  78       5.830000    8.020000   19.900000      10.0000    195.0840
  422   3 Pt  78       8.640000    8.060000   19.920000      10.0000    195.0840
  423   3 Pt  78      11.380000    8.020000   19.970000      10.0000    195.0840
  424   3 Pt  78      -2.690000    7.970000   19.920000      10.0000    195.0840
  425   3 Pt  78       0.170000    7.950000   19.820000      10.0000    195.0840
  426   3 Pt  78       2.960000    8.030001   19.850000      10.0000    195.0840
  427   3 Pt  78       7.150001   10.480001   19.950000      10.0000    195.0840
  428   3 Pt  78      10.030001   10.400001   20.070000      10.0000    195.0840
  429   3 Pt  78      -3.950000   10.380001   19.950000      10.0000    195.0840
  430   3 Pt  78      -1.250000   10.340000   19.830000      10.0000    195.0840
  431   3 Pt  78       1.480000   10.480001   19.760000      10.0000    195.0840
  432   3 Pt  78       4.340000   10.430001   19.880000      10.0000    195.0840
  433   3 Pt  78       8.580000   12.920000   19.920000      10.0000    195.0840
  434   3 Pt  78      -5.520000   12.820001   20.130000      10.0000    195.0840
  435   3 Pt  78      -2.660000   12.790001   19.880000      10.0000    195.0840
  436   3 Pt  78       0.050000   12.800001   19.750000      10.0000    195.0840
  437   3 Pt  78       2.820000   12.980001   19.720000      10.0000    195.0840
  438   3 Pt  78       5.730000   12.910000   19.830000      10.0000    195.0840
  439   3 Pt  78       0.150000    1.400000   17.660000      10.0000    195.0840
  440   3 Pt  78       3.000000    1.400000   17.810000      10.0000    195.0840
  441   3 Pt  78       5.680000    1.480000   17.620000      10.0000    195.0840
  442   3 Pt  78       8.460000    1.500000   17.510000      10.0000    195.0840
  443   3 Pt  78      11.330000    1.500000   17.590000      10.0000    195.0840
  444   3 Pt  78      14.230001    1.510000   17.450000      10.0000    195.0840
  445   3 Pt  78       1.600000    3.970000   17.570000      10.0000    195.0840
  446   3 Pt  78       4.320000    4.000000   17.610000      10.0000    195.0840
  447   3 Pt  78       7.160000    4.010000   17.570000      10.0000    195.0840
  448   3 Pt  78      10.010000    3.970000   17.550000      10.0000    195.0840
  449   3 Pt  78      12.670001    3.860000   17.530000      10.0000    195.0840
  450   3 Pt  78      -1.330000    4.010000   17.490000      10.0000    195.0840
  451   3 Pt  78       2.810000    6.400001   17.690000      10.0000    195.0840
  452   3 Pt  78       5.800000    6.470000   17.680000      10.0000    195.0840
  453   3 Pt  78       8.580000    6.480000   17.560000      10.0000    195.0840
  454   3 Pt  78      11.380000    6.380000   17.520000      10.0000    195.0840
  455   3 Pt  78      -2.720000    6.360001   17.650000      10.0000    195.0840
  456   3 Pt  78       0.140000    6.320000   17.430000      10.0000    195.0840
  457   3 Pt  78       4.310000    8.830000   17.560000      10.0000    195.0840
  458   3 Pt  78       7.170000    8.860001   17.570000      10.0000    195.0840
  459   3 Pt  78       9.930000    8.820001   17.570000      10.0000    195.0840
  460   3 Pt  78      -4.210001    8.800000   17.650000      10.0000    195.0840
  461   3 Pt  78      -1.430000    8.850000   17.590000      10.0000    195.0840
  462   3 Pt  78       1.530000    8.900001   17.530000      10.0000    195.0840
  463   3 Pt  78       5.660000   11.270000   17.650000      10.0000    195.0840
  464   3 Pt  78       8.510000   11.240001   17.600000      10.0000    195.0840
  465   3 Pt  78      -5.570001   11.240001   17.760000      10.0000    195.0840
  466   3 Pt  78      -2.780000   11.130000   17.420000      10.0000    195.0840
  467   3 Pt  78      -0.010000   11.180000   17.480000      10.0000    195.0840
  468   3 Pt  78       2.940000   11.380000   17.560000      10.0000    195.0840
  469   3 Pt  78       7.140000   13.700001   17.620000      10.0000    195.0840
  470   3 Pt  78      -6.870000   13.620001   17.780000      10.0000    195.0840
  471   3 Pt  78      -4.110000   13.560000   17.610000      10.0000    195.0840
  472   3 Pt  78      -1.450000   13.510000   17.460000      10.0000    195.0840
  473   3 Pt  78       1.420000   13.730000   17.440000      10.0000    195.0840
  474   3 Pt  78       4.200000   13.700001   17.380000      10.0000    195.0840
  475   3 Pt  78      -8.440001   14.570000   15.410000      10.0000    195.0840
  476   3 Pt  78      -5.590000   14.550000   15.370000      10.0000    195.0840
  477   3 Pt  78      -2.850000   14.490002   15.230000      10.0000    195.0840
  478   3 Pt  78      -0.100000   14.450001   15.010000      10.0000    195.0840
  479   3 Pt  78       2.740000   14.430000   15.140000      10.0000    195.0840
  480   3 Pt  78       5.650000   14.470000   15.130000      10.0000    195.0840
  481   3 Pt  78       1.460000    2.340000   15.330000      10.0000    195.0840
  482   3 Pt  78       4.270000    2.340000   15.240000      10.0000    195.0840
  483   3 Pt  78       7.060000    2.330000   15.250000      10.0000    195.0840
  484   3 Pt  78       9.800000    2.390000   15.240000      10.0000    195.0840
  485   3 Pt  78      12.540001    2.190000   15.159999      10.0000    195.0840
  486   3 Pt  78      -1.460000    2.380000   15.110000      10.0000    195.0840
  487   3 Pt  78       2.920000    4.810000   15.289999      10.0000    195.0840
  488   3 Pt  78       5.650000    4.740000   15.330000      10.0000    195.0840
  489   3 Pt  78       8.510000    4.800000   15.250000      10.0000    195.0840
  490   3 Pt  78      11.350001    4.740000   15.190000      10.0000    195.0840
  491   3 Pt  78      -2.770000    4.810000   15.340000      10.0000    195.0840
  492   3 Pt  78       0.080000    4.830000   15.000000      10.0000    195.0840
  493   3 Pt  78       4.260000    7.220001   15.309999      10.0000    195.0840
  494   3 Pt  78       7.090001    7.190001   15.170000      10.0000    195.0840
  495   3 Pt  78       9.900001    7.260000   15.270000      10.0000    195.0840
  496   3 Pt  78      -4.200000    7.150001   15.200000      10.0000    195.0840
  497   3 Pt  78      -1.370000    7.150001   15.349999      10.0000    195.0840
  498   3 Pt  78       1.530000    7.270000   15.219999      10.0000    195.0840
  499   3 Pt  78       5.660000    9.660000   15.370000      10.0000    195.0840
  500   3 Pt  78       8.440001    9.660000   15.119999      10.0000    195.0840
  501   3 Pt  78      -5.490000    9.630001   15.320000      10.0000    195.0840
  502   3 Pt  78      -2.730000    9.450001   15.130000      10.0000    195.0840
  503   3 Pt  78      -0.060000    9.590000   15.309999      10.0000    195.0840
  504   3 Pt  78       2.800000    9.770000   15.230000      10.0000    195.0840
  505   3 Pt  78       7.010000   12.150001   15.320000      10.0000    195.0840
[...]
 -                                                                             -
 -                                DBCSR STATISTICS                             -
 -                                                                             -
 -------------------------------------------------------------------------------
 COUNTER                                    TOTAL       BLAS       SMM       ACC
 flops     5 x     5 x   116           5709235800       0.0%    100.0%      0.0%
 flops     5 x    13 x   116           7244733600       0.0%    100.0%      0.0%
 flops    13 x     5 x   116           7250886240       0.0%    100.0%      0.0%
 flops    13 x    13 x   116           8662301856       0.0%    100.0%      0.0%
 flops     5 x     5 x    96           9449769600       0.0%    100.0%      0.0%
 flops     5 x    13 x    96          11991283200       0.0%    100.0%      0.0%
 flops    13 x     5 x    96          12001466880       0.0%    100.0%      0.0%
 flops    13 x    20 x   116          12456019680       0.0%    100.0%      0.0%
 flops    20 x    13 x   116          12496011840       0.0%    100.0%      0.0%
 flops     5 x    20 x   116          13319282400       0.0%    100.0%      0.0%
 flops    20 x     5 x   116          13360694400       0.0%    100.0%      0.0%
 flops    13 x    13 x    96          14337603072       0.0%    100.0%      0.0%
 flops    13 x    20 x    96          20616860160       0.0%    100.0%      0.0%
 flops    20 x    13 x    96          20683054080       0.0%    100.0%      0.0%
 flops     5 x    20 x    96          22045708800       0.0%    100.0%      0.0%
 flops    20 x     5 x    96          22114252800       0.0%    100.0%      0.0%
 flops     5 x     5 x   128          81898003200       0.0%    100.0%      0.0%
 flops     5 x    13 x   128         103924454400       0.0%    100.0%      0.0%
 flops    13 x     5 x   128         104012712960       0.0%    100.0%      0.0%
 flops    20 x    20 x   116         110917900800       0.0%    100.0%      0.0%
 flops    13 x    13 x   128         124259226624       0.0%    100.0%      0.0%
 flops    13 x    20 x   128         178679454720       0.0%    100.0%      0.0%
 flops    20 x    13 x   128         179253135360       0.0%    100.0%      0.0%
 flops    20 x    20 x    96         183588249600       0.0%    100.0%      0.0%
 flops     5 x    20 x   128         191062809600       0.0%    100.0%      0.0%
 flops    20 x     5 x   128         191656857600       0.0%    100.0%      0.0%
 flops    20 x    20 x   128        1591098163200       0.0%    100.0%      0.0%
 flops inhomo. stacks                           0       0.0%      0.0%      0.0%
 flops total                         3.254090E+12       0.0%    100.0%      0.0%
 flops max/rank                     28.751926E+09       0.0%    100.0%      0.0%
 matmuls inhomo. stacks                         0       0.0%      0.0%      0.0%
 matmuls total                           78806832       0.0%    100.0%      0.0%
 number of processed stacks                937584       0.0%    100.0%      0.0%
 average stack size                                     0.0      84.1       0.0
 marketing flops                     6.757917E+12
 -------------------------------------------------------------------------------
 # multiplications                             51
 max memory usage/rank               1.633493E+09
 # max total images/rank                        2
 # max 3D layers                                1
 # MPI messages exchanged                  189312
 MPI messages size (bytes):
  total size                       116.364214E+09
  min size                         314.880000E+03
  max size                         843.776000E+03
  average size                     614.669000E+03
 MPI breakdown and total messages size (bytes):
             size <=      128                   0                        0
       128 < size <=     8192                   0                        0
      8192 < size <=    32768                   0                        0
     32768 < size <=   131072                   0                        0
    131072 < size <=  4194304              189312             116364217728
   4194304 < size <= 16777216                   0                        0
  16777216 < size                               0                        0
 -------------------------------------------------------------------------------

 *** WARNING in dbcsr_mm.F:290 :: Using a non-square number of MPI ranks ***
 *** might lead to poor performance. Used ranks: 128 Suggested: 121 256  ***

 -------------------------------------------------------------------------------
 -                                                                             -
 -                      DBCSR MESSAGE PASSING PERFORMANCE                      -
 -                                                                             -
 -------------------------------------------------------------------------------
 ROUTINE             CALLS      AVE VOLUME [Bytes]
 MP_Bcast               28                     12.
 MP_Allreduce          431                     11.
 MP_Alltoall          1440                 608873.
 MP_ISend             3264                 292036.
 MP_IRecv             3264                 285487.
 -------------------------------------------------------------------------------

 -------------------------------------------------------------------------------
 -                                                                             -
 -                                DBM STATISTICS                               -
 -                                                                             -
 -------------------------------------------------------------------------------
    M  x    N  x    K                                          COUNT     PERCENT
 -------------------------------------------------------------------------------

 -------------------------------------------------------------------------------
 -                                                                             -
 -                                GRID STATISTICS                              -
 -                                                                             -
 -------------------------------------------------------------------------------
 LP    KERNEL             BACKEND                              COUNT     PERCENT
 4     collocate general  REF                               20552439      22.52%
 4     integrate general  REF                               20422295      22.38%
 3     collocate general  REF                               13915095      15.25%
 3     integrate general  REF                               13858589      15.19%
 2     collocate general  REF                               11033289      12.09%
 2     integrate general  REF                               10816950      11.85%
 5     integrate general  REF                                 402989       0.44%
 0     collocate general  REF                                 130560       0.14%
 0     integrate general  REF                                  65280       0.07%
 1     integrate general  REF                                  65280       0.07%
 -------------------------------------------------------------------------------

 MEMORY| Estimated peak process memory [MiB]                                1817

 -------------------------------------------------------------------------------
 ----                             MULTIGRID INFO                            ----
 -------------------------------------------------------------------------------
 count for grid        1:        1093169          cutoff [a.u.]          200.00
 count for grid        2:        1087557          cutoff [a.u.]           66.67
 count for grid        3:         710016          cutoff [a.u.]           22.22
 count for grid        4:         546768          cutoff [a.u.]            7.41
 total gridlevel count  :        3437510

 -------------------------------------------------------------------------------
 -                                                                             -
 -                         MESSAGE PASSING PERFORMANCE                         -
 -                                                                             -
 -------------------------------------------------------------------------------

 ROUTINE             CALLS      AVE VOLUME [Bytes]
 MP_Group                4
 MP_Bcast              256                2227480.
 MP_Allreduce         3711                  28927.
 MP_Sync               106
 MP_Alltoall          3082               16329598.
 MP_SendRecv           508                   5712.
 MP_ISendRecv        25908                  61740.
 MP_Wait             45750
 MP_comm_split          51
 MP_ISend            18700                 256252.
 MP_IRecv            18700                 256252.
 MP_Recv               183                1682944.
 MP_Write_All            3                1797408.
 -------------------------------------------------------------------------------


 -------------------------------------------------------------------------------
 -                                                                             -
 -                           R E F E R E N C E S                               -
 -                                                                             -
 -------------------------------------------------------------------------------
 
 CP2K version 2022.1, the CP2K developers group (2022).
 CP2K is freely available from https://www.cp2k.org/ .

 Kuehne,Thomas D.; Iannuzzi,Marcella; Del Ben,Mauro;
 Rybkin,Vladimir V.; Seewald,Patrick; Stein,Frederick; Laino,Teodoro;
 Khaliullin,Rustam Z.; Schuett,Ole; Schiffmann,Florian; Golze,Dorothea;
 Wilhelm,Jan; Chulkov,Sergey; Bani-Hashemian,Mohammad Hossein;
 Weber,Valery; Borstnik,Urban; Taillefumier,Mathieu;
 Jakobovits,Alice Shoshana; Lazzaro,Alfio; Pabst,Hans; Mueller,Tiziano;
 Schade,Robert; Guidon,Manuel; Andermatt,Samuel; Holmberg,Nico;
 Schenter,Gregory K.; Hehn,Anna; Bussy,Augustin; Belleflamme,Fabian;
 Tabacchi,Gloria; Gloess,Andreas; Lass,Michael; Bethune,Iain;
 Mundy,Christopher J.; Plessl,Christian; Watkins,Matt;
 VandeVondele,Joost; Krack,Matthias; Hutter,Juerg. 
 The Journal of Chemical Physics, 152 (19), (2020). 
 CP2K: An electronic structure and molecular dynamics software package -
 Quickstep: Efficient and accurate electronic structure calculations.
 https://doi.org/10.1063/5.0007045

 Goerigk, Lars; Hansen, Andreas; Bauer, Christoph; Ehrlich, Stephan;
 Najibi, Asim; Grimme, Stefan. , 19 (48), (2017). 
 A look at the density functional theory zoo with the advanced GMTKN55 database
 for general main group thermochemistry, kinetics and noncovalent interactions.
 https://doi.org/10.1039/C7CP04913G

 Bani-Hashemian, MH; Bruck, S; Luisier, M; VandeVondele, J. 
 JOURNAL OF CHEMICAL PHYSICS, 144 (4), 044113 (2016). 
 A generalized Poisson solver for first-principles device simulations.
 https://doi.org/10.1063/1.4940796

 Schuett, Ole; Messmer, Peter; Hutter, Juerg; VandeVondele, Joost. 
 Electronic Structure Calculations on Graphics Processing Units, John
 Wiley & Sons, Ltd, 173-190 (2016). 
 GPU-Accelerated Sparse Matrix-Matrix Multiplication for
 Linear Scaling Density Functional Theory.
 https://doi.org/10.1002/9781118670712.ch8

 Heinecke, A; Henry, G; Hutchinson, M; Pabst, H. 
 Proceedings of Intl. Supercomputing Conference, 981-991 (2016). 
 LIBXSMM: Accelerating Small Matrix Multiplications
 by Runtime Code Generation.
 https://doi.org/10.1109/SC.2016.83

 Borstnik, U; VandeVondele, J; Weber, V; Hutter, J. 
 PARALLEL COMPUTING, 40 (5-6), 47-58 (2014). 
 Sparse matrix multiplication: The distributed block-compressed sparse
 row library.
 https://doi.org/10.1016/j.parco.2014.03.012

 Hutter, J; Iannuzzi, M; Schiffmann, F; VandeVondele, J. 
 WIREs Comput Mol Sci., 4 (1), 15-25 (2014). 
 CP2K: atomistic simulations of condensed matter systems.
 https://doi.org/10.1002/wcms.1159

 Marek, A; Blum, V; Johanni, R; Havu, V; Lang, B; Auckenthaler, T;
 Heinecke, A; Bungartz, H; Lederer, H. 
 Journal of Physics: Condensed Matter, 26 (21), (2014). 
 The ELPA library: scalable parallel eigenvalue solutions for
 electronic structure
 theory and computational science.
 https://doi.org/10.1088/0953-8984/26/21/213201

 Grimme, S; Ehrlich, S; Goerigk, L. 
 JOURNAL OF COMPUTATIONAL CHEMISTRY, 32, 1456 (2011). 
 Effect of the damping function in dispersion corrected density functional theory.
 https://doi.org/10.1002/jcc.21759

 Grimme, S; Antony, J; Ehrlich, S; Krieg, H. 
 JOURNAL OF CHEMICAL PHYSICS, 132 (15), 154104 (2010). 
 A consistent and accurate ab initio parametrization of density
 functional dispersion correction (DFT-D) for the 94 elements H-Pu.
 https://doi.org/10.1063/1.3382344

 VandeVondele, J; Hutter, J. 
 JOURNAL OF CHEMICAL PHYSICS, 127 (11), 114105 (2007). 
 Gaussian basis sets for accurate calculations on molecular systems in
 gas and condensed phases.
 https://doi.org/10.1063/1.2770708

 Krack, M. 
 THEORETICAL CHEMISTRY ACCOUNTS, 114 (1-3), 145-152 (2005). 
 Pseudopotentials for H to Kr optimized for gradient-corrected
 exchange-correlation functionals.
 https://doi.org/10.1007/s00214-005-0655-y

 VandeVondele, J; Krack, M; Mohamed, F; Parrinello, M; Chassaing, T;
 Hutter, J. COMPUTER PHYSICS COMMUNICATIONS, 167 (2), 103-128 (2005). 
 QUICKSTEP: Fast and accurate density functional calculations using a
 mixed Gaussian and plane waves approach.
 https://doi.org/10.1016/j.cpc.2004.12.014

 Frigo, M; Johnson, SG. 
 PROCEEDINGS OF THE IEEE, 93 (2), 216-231 (2005). 
 The design and implementation of FFTW3.
 https://doi.org/10.1109/JPROC.2004.840301

 Hartwigsen, C; Goedecker, S; Hutter, J. 
 PHYSICAL REVIEW B, 58 (7), 3641-3662 (1998). 
 Relativistic separable dual-space Gaussian pseudopotentials from H to Rn.
 https://doi.org/10.1103/PhysRevB.58.3641

 Lippert, G; Hutter, J; Parrinello, M. 
 MOLECULAR PHYSICS, 92 (3), 477-487 (1997). 
 A hybrid Gaussian and plane wave density functional scheme.
 https://doi.org/10.1080/002689797170220

 Perdew, JP; Burke, K; Ernzerhof, M. 
 PHYSICAL REVIEW LETTERS, 77 (18), 3865-3868 (1996). 
 Generalized gradient approximation made simple.
 https://doi.org/10.1103/PhysRevLett.77.3865

 Goedecker, S; Teter, M; Hutter, J. 
 PHYSICAL REVIEW B, 54 (3), 1703-1710 (1996). 
 Separable dual-space Gaussian pseudopotentials.
 https://doi.org/10.1103/PhysRevB.54.1703


 -------------------------------------------------------------------------------
 -                                                                             -
 -                                T I M I N G                                  -
 -                                                                             -
 -------------------------------------------------------------------------------
 SUBROUTINE                       CALLS  ASD         SELF TIME        TOTAL TIME
                                MAXIMUM       AVERAGE  MAXIMUM  AVERAGE  MAXIMUM
 CP2K                                 1  1.0    0.019    0.035  354.584  354.586
 qs_forces                            1  2.0    0.002    0.002  354.247  354.248
 qs_energies                          1  3.0    0.000    0.000  348.107  348.112
 scf_env_do_scf                       1  4.0    0.000    0.000  339.899  340.047
 scf_env_do_scf_inner_loop           50  5.0    0.003    0.008  339.899  340.046
 rebuild_ks_matrix                   51  6.9    0.000    0.000  182.923  182.959
 qs_ks_build_kohn_sham_matrix        51  7.9    0.008    0.009  182.923  182.959
 qs_ks_update_qs_env                 50  6.0    0.000    0.000  178.905  178.941
 pw_transfer                       2656 12.2    0.193    0.249  115.255  117.559
 fft_wrap_pw1pw2                   2656 13.2    0.026    0.031  115.062  117.348
 fft_wrap_pw1pw2_200               2350 14.4    7.794    9.236  113.540  115.817
 pw_poisson_solve                    51  8.9    0.005    0.017   98.981   99.016
 qs_scf_new_mos                      50  6.0    0.002    0.007   96.218   96.386
 fft3d_ps                          2656 15.2   33.292   37.215   92.496   95.600
 implicit_poisson_solver_mixed_      51  9.9    2.101    2.606   93.811   93.885
 eigensolver                         50  7.0    0.004    0.006   90.745   91.002
 derive_fft                         306 12.1    0.020    0.026   65.736   65.902
 cp_fm_diag_elpa                     51  8.0    0.001    0.001   63.578   63.741
 cp_fm_redistribute_end              51  9.0    8.314   62.995    8.422   63.057
 cp_fm_diag_elpa_base                51  9.0   53.804   61.583   54.324   62.215
 mp_alltoall_z22v                  2656 17.2   49.535   61.248   49.535   61.248
 qs_rho_update_rho_low               51  6.0    0.000    0.001   56.767   56.794
 calculate_rho_elec                  51  7.0    0.099    0.123   56.767   56.794
 apply_P_operator                   255 11.1    1.356    1.507   56.205   56.351
 sum_up_and_integrate                51  8.9    0.277    0.336   55.856   55.893
 integrate_v_rspace                  51  9.9    0.002    0.003   55.579   55.697
 grid_collocate_task_list            51  8.0   36.352   44.665   36.352   44.665
 grid_integrate_task_list            51 10.9   33.673   40.609   33.673   40.609
 x_to_yz                           1531 16.4    6.477    8.164   37.350   39.265
 rs_pw_transfer                     412 10.4    0.005    0.006   25.228   30.794
 cp_fm_triangular_multiply          150  8.0   28.375   28.706   28.375   28.706
 yz_to_x                            819 16.4    2.233    2.610   20.698   28.042
 qs_vxc_create                       51  8.9    0.001    0.002   25.184   25.490
 xc_vxc_pw_create                    51  9.9    0.431    0.546   25.182   25.489
 density_rs2pw                       51  8.0    0.003    0.004   19.214   24.954
 xc_pw_derive                       306 11.9    0.005    0.006   17.724   19.631
 rs_pw_transfer_RS2PW_200            53  9.9    3.457    3.811   11.410   16.983
 apply_poisson_operator_fft          51 10.9    0.001    0.001   16.482   16.778
 mp_waitany                       18700 12.4   11.284   16.708   11.284   16.708
 apply_inv_laplace_operator_fft     155 11.6    0.389    0.442   15.180   15.702
 potential_pw2rs                     51 10.9    0.015    0.017   14.469   14.576
 mp_alltoall_d11v                   721 10.2    8.960   14.059    8.960   14.059
 xc_pw_divergence                    51 10.9    0.003    0.003   12.034   13.486
 xc_rho_set_and_dset_create          51 10.9    0.252    0.303   12.216   13.251
 rs_gather_matrices                  51 10.9    0.061    0.078    7.424   12.541
 ps_implicit_compute_error_fft      102 10.9    0.642    0.782   11.161   11.935
 ps_implicit_compute_veps            51 10.9    0.295    0.375   11.186   11.366
 pw_scatter_p                      1684 15.4    9.402   10.950    9.402   10.950
 gspace_mixing                       49  6.0    0.093    0.115    8.774    8.775
 rs_pw_transfer_PW2RS_200            53 12.8    3.977    4.147    8.364    8.572
 pw_derive                         1224 13.1    7.750    8.141    7.750    8.141
 -------------------------------------------------------------------------------

 The number of warnings for this run is : 1
 
 -------------------------------------------------------------------------------
  **** **** ******  **  PROGRAM ENDED AT                 2023-12-03 05:21:18.861
 ***** ** ***  *** **   PROGRAM RAN ON                                     cu001
 **    ****   ******    PROGRAM RAN BY                                     jxzhu
 ***** **    ** ** **   PROGRAM PROCESS ID                                 22913
  **** **  *******  **  PROGRAM STOPPED IN /public/home/jxzhu/tmp_calc/817e5e76e
                                           c7c5c7b65747260f88b1bb2273e3a66/calc/
                                           002700.000/search_hi.000000
