 DBCSR| CPU Multiplication driver                                           XSMM
 DBCSR| Multrec recursion limit                                              512
 DBCSR| Multiplication stack size                                           1000
 DBCSR| Maximum elements for images                                    UNLIMITED
 DBCSR| Multiplicative factor virtual images                                   1
 DBCSR| Use multiplication densification                                       T
 DBCSR| Multiplication size stacks                                             3
 DBCSR| Use memory pool for CPU allocation                                     F
 DBCSR| Number of 3D layers                                               SINGLE
 DBCSR| Use MPI memory allocation                                              F
 DBCSR| Use RMA algorithm                                                      F
 DBCSR| Use Communication thread                                               T
 DBCSR| Communication thread load                                             87
 DBCSR| MPI: My node id                                                        0
 DBCSR| MPI: Number of nodes                                                  32
 DBCSR| OMP: Current number of threads                                         1
 DBCSR| OMP: Max number of threads                                             1
 DBCSR| Split modifier for TAS multiplication algorithm                  1.0E+00


  **** **** ******  **  PROGRAM STARTED AT               2023-12-03 03:56:56.476
 ***** ** ***  *** **   PROGRAM STARTED ON                                 cu042
 **    ****   ******    PROGRAM STARTED BY                                 jxzhu
 ***** **    ** ** **   PROGRAM PROCESS ID                                 22585
  **** **  *******  **  PROGRAM STARTED IN /public/home/jxzhu/tmp_calc/04c0855f9
                                           8753fac23fde4df51ba20f3741a9e9a/calc/
                                           task.002.000008

 CP2K| version string:                                       CP2K version 2022.1
 CP2K| source code revision number:                                  git:2caeb6f
 CP2K| cp2kflags: omp libint fftw3 libxc elpa parallel mpi3 scalapack cosma xsmm
 CP2K|             plumed2 spglib mkl sirius libvori libbqb
 CP2K| is freely available from                            https://www.cp2k.org/
 CP2K| Program compiled at                           Mon Jul 3 17:37:06 CST 2023
 CP2K| Program compiled on                                                 mu003
 CP2K| Program compiled for                                                local
 CP2K| Data directory path                             /public/home/jxzhu/basis/
 CP2K| Input file name                                                 input.inp
 
 GLOBAL| Force Environment number                                              1
 GLOBAL| Basis set file name                                        BASIS_MOLOPT
 GLOBAL| Potential file name                                      GTH_POTENTIALS
 GLOBAL| MM Potential file name                                     MM_POTENTIAL
 GLOBAL| Coordinate file name                                          coord.xyz
 GLOBAL| Method name                                                        CP2K
 GLOBAL| Project name                                                       cp2k
 GLOBAL| Run type                                                   ENERGY_FORCE
 GLOBAL| FFT library                                                       FFTW3
 GLOBAL| Diagonalization library                                            ELPA
 GLOBAL| Minimum number of eigenvectors for ELPA usage                        16
 GLOBAL| Orthonormality check for eigenvectors                          DISABLED
 GLOBAL| Matrix multiplication library                                     COSMA
 GLOBAL| All-to-all communication in single precision                          F
 GLOBAL| FFTs using library dependent lengths                                  T
 GLOBAL| Grid backend                                                       AUTO
 GLOBAL| Global print level                                               MEDIUM
 GLOBAL| MPI I/O enabled                                                       T
 GLOBAL| Total number of message passing processes                            32
 GLOBAL| Number of threads for this process                                    1
 GLOBAL| This output is from process                                           0
 GLOBAL| Stack size for threads created by OpenMP (OMP_STACKSIZE)        default
 GLOBAL| CPU model name                 Intel(R) Xeon(R) Gold 6338 CPU @ 2.00GHz
 GLOBAL| CPUID                                                              1003

 MEMORY| system memory details [Kb]
 MEMORY|                        rank 0           min           max       average
 MEMORY| MemTotal            263619172     263619172     263619172     263619172
 MEMORY| MemFree             173039020     173039020     173039020     173039020
 MEMORY| Buffers                  3320          3320          3320          3320
 MEMORY| Cached                8520396       8520396       8520396       8520396
 MEMORY| Slab                  1878472       1878472       1878472       1878472
 MEMORY| SReclaimable           248000        248000        248000        248000
 MEMORY| MemLikelyFree       181810736     181810736     181810736     181810736


 *** Fundamental physical constants (SI units) ***

 *** Literature: B. J. Mohr and B. N. Taylor,
 ***             CODATA recommended values of the fundamental physical
 ***             constants: 2006, Web Version 5.1
 ***             http://physics.nist.gov/constants

 Speed of light in vacuum [m/s]                             2.99792458000000E+08
 Magnetic constant or permeability of vacuum [N/A**2]       1.25663706143592E-06
 Electric constant or permittivity of vacuum [F/m]          8.85418781762039E-12
 Planck constant (h) [J*s]                                  6.62606896000000E-34
 Planck constant (h-bar) [J*s]                              1.05457162825177E-34
 Elementary charge [C]                                      1.60217648700000E-19
 Electron mass [kg]                                         9.10938215000000E-31
 Electron g factor [ ]                                     -2.00231930436220E+00
 Proton mass [kg]                                           1.67262163700000E-27
 Fine-structure constant                                    7.29735253760000E-03
 Rydberg constant [1/m]                                     1.09737315685270E+07
 Avogadro constant [1/mol]                                  6.02214179000000E+23
 Boltzmann constant [J/K]                                   1.38065040000000E-23
 Atomic mass unit [kg]                                      1.66053878200000E-27
 Bohr radius [m]                                            5.29177208590000E-11

 *** Conversion factors ***

 [u] -> [a.u.]                                              1.82288848426455E+03
 [Angstrom] -> [Bohr] = [a.u.]                              1.88972613288564E+00
 [a.u.] = [Bohr] -> [Angstrom]                              5.29177208590000E-01
 [a.u.] -> [s]                                              2.41888432650478E-17
 [a.u.] -> [fs]                                             2.41888432650478E-02
 [a.u.] -> [J]                                              4.35974393937059E-18
 [a.u.] -> [N]                                              8.23872205491840E-08
 [a.u.] -> [K]                                              3.15774647902944E+05
 [a.u.] -> [kJ/mol]                                         2.62549961709828E+03
 [a.u.] -> [kcal/mol]                                       6.27509468713739E+02
 [a.u.] -> [Pa]                                             2.94210107994716E+13
 [a.u.] -> [bar]                                            2.94210107994716E+08
 [a.u.] -> [atm]                                            2.90362800883016E+08
 [a.u.] -> [eV]                                             2.72113838565563E+01
 [a.u.] -> [Hz]                                             6.57968392072181E+15
 [a.u.] -> [1/cm] (wave numbers)                            2.19474631370540E+05
 [a.u./Bohr**2] -> [1/cm]                                   5.14048714338585E+03
 

 CELL_TOP| Volume [angstrom^3]:                                     12686.086737
 CELL_TOP| Vector a [angstrom    16.869     0.000     0.000   |a| =    16.869000
 CELL_TOP| Vector b [angstrom    -8.434    14.609     0.000   |b| =    16.868929
 CELL_TOP| Vector c [angstrom     0.000     0.000    51.478   |c| =    51.477900
 CELL_TOP| Angle (b,c), alpha [degree]:                                90.000000
 CELL_TOP| Angle (a,c), beta  [degree]:                                90.000000
 CELL_TOP| Angle (a,b), gamma [degree]:                               120.000140
 CELL_TOP| Numerically orthorhombic:                                          NO
 
 GENERATE|  Preliminary Number of Bonds generated:                             0
 GENERATE|  Achieved consistency in connectivity generation.

 CELL| Volume [angstrom^3]:                                         12686.086737
 CELL| Vector a [angstrom]:      16.869     0.000     0.000   |a| =    16.869000
 CELL| Vector b [angstrom]:      -8.434    14.609     0.000   |b| =    16.868929
 CELL| Vector c [angstrom]:       0.000     0.000    51.478   |c| =    51.477900
 CELL| Angle (b,c), alpha [degree]:                                    90.000000
 CELL| Angle (a,c), beta  [degree]:                                    90.000000
 CELL| Angle (a,b), gamma [degree]:                                   120.000140
 CELL| Numerically orthorhombic:                                              NO

 CELL_REF| Volume [angstrom^3]:                                     12686.086737
 CELL_REF| Vector a [angstrom    16.869     0.000     0.000   |a| =    16.869000
 CELL_REF| Vector b [angstrom    -8.434    14.609     0.000   |b| =    16.868929
 CELL_REF| Vector c [angstrom     0.000     0.000    51.478   |c| =    51.477900
 CELL_REF| Angle (b,c), alpha [degree]:                                90.000000
 CELL_REF| Angle (a,c), beta  [degree]:                                90.000000
 CELL_REF| Angle (a,b), gamma [degree]:                               120.000140
 CELL_REF| Numerically orthorhombic:                                          NO

 *******************************************************************************
 *******************************************************************************
 **                                                                           **
 **     #####                         ##              ##                      **
 **    ##   ##            ##          ##              ##                      **
 **   ##     ##                       ##            ######                    **
 **   ##     ##  ##   ##  ##   #####  ##  ##   ####   ##    #####    #####    **
 **   ##     ##  ##   ##  ##  ##      ## ##   ##      ##   ##   ##  ##   ##   **
 **   ##  ## ##  ##   ##  ##  ##      ####     ###    ##   ######   ######    **
 **    ##  ###   ##   ##  ##  ##      ## ##      ##   ##   ##       ##        **
 **     #######   #####   ##   #####  ##  ##  ####    ##    #####   ##        **
 **           ##                                                    ##        **
 **                                                                           **
 **                                                ... make the atoms dance   **
 **                                                                           **
 **            Copyright (C) by CP2K developers group (2000-2022)             **
 **                      J. Chem. Phys. 152, 194103 (2020)                    **
 **                                                                           **
 *******************************************************************************

 DFT| Spin restricted Kohn-Sham (RKS) calculation                            RKS
 DFT| Multiplicity                                                             1
 DFT| Number of spin states                                                    1
 DFT| Charge                                                                   0
 DFT| Self-interaction correction (SIC)                                       NO
 DFT| Cutoffs: density                                              1.000000E-10
 DFT|          gradient                                             1.000000E-10
 DFT|          tau                                                  1.000000E-10
 DFT|          cutoff_smoothing_range                               0.000000E+00
 DFT| XC density smoothing                                                  NONE
 DFT| XC derivatives                                                          PW

 FUNCTIONAL| PBE:
 FUNCTIONAL| J.P.Perdew, K.Burke, M.Ernzerhof, Phys. Rev. Letter, vol. 77, n 18,
 FUNCTIONAL|  pp. 3865-3868, (1996){spin unpolarized}                           

 vdW POTENTIAL|                                                   Pair Potential
 vdW POTENTIAL|          DFT-D3 (Version 3.1)
 vdW POTENTIAL|          Potential Form: S. Grimme et al, JCP 132: 154104 (2010)
 vdW POTENTIAL|          Zero Damping
 vdW POTENTIAL|          Cutoff Radius [Bohr]:                             20.00
 vdW POTENTIAL|          s6 Scaling Factor:                               1.0000
 vdW POTENTIAL|          sr6 Scaling Factor:                              1.2170
 vdW POTENTIAL|          s8 Scaling Factor:                               0.7220
 vdW POTENTIAL|          Cutoff for CN calculation:                   0.1000E-05

 QS| Method:                                                                 GPW
 QS| Density plane wave grid type                        NON-SPHERICAL FULLSPACE
 QS| Number of grid levels:                                                    4
 QS| Density cutoff [a.u.]:                                                200.0
 QS| Multi grid cutoff [a.u.]: 1) grid level                               200.0
 QS|                           2) grid level                                66.7
 QS|                           3) grid level                                22.2
 QS|                           4) grid level                                 7.4
 QS| Grid level progression factor:                                          3.0
 QS| Relative density cutoff [a.u.]:                                        20.0
 QS| Interaction thresholds: eps_pgf_orb:                                3.2E-07
 QS|                         eps_filter_matrix:                          0.0E+00
 QS|                         eps_core_charge:                            1.0E-15
 QS|                         eps_rho_gspace:                             1.0E-13
 QS|                         eps_rho_rspace:                             1.0E-13
 QS|                         eps_gvg_rspace:                             3.2E-07
 QS|                         eps_ppl:                                    1.0E-02
 QS|                         eps_ppnl:                                   3.2E-09


 ATOMIC KIND INFORMATION

  1. Atomic kind: Pt                                    Number of atoms:     216

     Orbital Basis Set                      DZVP-A5-Q10-323-MOL-T1-DERIVED_SET-1

       Number of orbital shell sets:                                           1
       Number of orbital shells:                                               6
       Number of primitive Cartesian functions:                                5
       Number of Cartesian basis functions:                                   23
       Number of spherical basis functions:                                   20
       Norm type:                                                              2

       Normalised Cartesian orbitals:

                        Set   Shell   Orbital            Exponent    Coefficient

                          1       1    2s                2.521825       0.177473
                                                         1.453920      -0.063399
                                                         0.614053      -0.407089
                                                         0.232656       0.262254
                                                         0.074788       0.047371

                          1       2    3s                2.521825      -0.049056
                                                         1.453920       0.044904
                                                         0.614053      -0.009756
                                                         0.232656      -0.144709
                                                         0.074788       0.144085

                          1       3    3px               2.521825      -0.317572
                                                         1.453920       0.534826
                                                         0.614053      -0.489458
                                                         0.232656       0.245631
                                                         0.074788       0.018221
                          1       3    3py               2.521825      -0.317572
                                                         1.453920       0.534826
                                                         0.614053      -0.489458
                                                         0.232656       0.245631
                                                         0.074788       0.018221
                          1       3    3pz               2.521825      -0.317572
                                                         1.453920       0.534826
                                                         0.614053      -0.489458
                                                         0.232656       0.245631
                                                         0.074788       0.018221

                          1       4    4dx2              2.521825       3.008522
                                                         1.453920      -1.224251
                                                         0.614053       0.225691
                                                         0.232656       0.125144
                                                         0.074788      -0.015348
                          1       4    4dxy              2.521825       5.210912
                                                         1.453920      -2.120465
                                                         0.614053       0.390909
                                                         0.232656       0.216756
                                                         0.074788      -0.026584
                          1       4    4dxz              2.521825       5.210912
                                                         1.453920      -2.120465
                                                         0.614053       0.390909
                                                         0.232656       0.216756
                                                         0.074788      -0.026584
                          1       4    4dy2              2.521825       3.008522
                                                         1.453920      -1.224251
                                                         0.614053       0.225691
                                                         0.232656       0.125144
                                                         0.074788      -0.015348
                          1       4    4dyz              2.521825       5.210912
                                                         1.453920      -2.120465
                                                         0.614053       0.390909
                                                         0.232656       0.216756
                                                         0.074788      -0.026584
                          1       4    4dz2              2.521825       3.008522
                                                         1.453920      -1.224251
                                                         0.614053       0.225691
                                                         0.232656       0.125144
                                                         0.074788      -0.015348

                          1       5    5dx2              2.521825       0.698026
                                                         1.453920      -1.511486
                                                         0.614053      -0.335394
                                                         0.232656      -0.025564
                                                         0.074788      -0.002699
                          1       5    5dxy              2.521825       1.209017
                                                         1.453920      -2.617970
                                                         0.614053      -0.580920
                                                         0.232656      -0.044277
                                                         0.074788      -0.004674
                          1       5    5dxz              2.521825       1.209017
                                                         1.453920      -2.617970
                                                         0.614053      -0.580920
                                                         0.232656      -0.044277
                                                         0.074788      -0.004674
                          1       5    5dy2              2.521825       0.698026
                                                         1.453920      -1.511486
                                                         0.614053      -0.335394
                                                         0.232656      -0.025564
                                                         0.074788      -0.002699
                          1       5    5dyz              2.521825       1.209017
                                                         1.453920      -2.617970
                                                         0.614053      -0.580920
                                                         0.232656      -0.044277
                                                         0.074788      -0.004674
                          1       5    5dz2              2.521825       0.698026
                                                         1.453920      -1.511486
                                                         0.614053      -0.335394
                                                         0.232656      -0.025564
                                                         0.074788      -0.002699

                          1       6    6dx2              2.521825       0.831079
                                                         1.453920      -0.709226
                                                         0.614053      -0.137351
                                                         0.232656       0.068642
                                                         0.074788       0.011745
                          1       6    6dxy              2.521825       1.439472
                                                         1.453920      -1.228415
                                                         0.614053      -0.237899
                                                         0.232656       0.118891
                                                         0.074788       0.020343
                          1       6    6dxz              2.521825       1.439472
                                                         1.453920      -1.228415
                                                         0.614053      -0.237899
                                                         0.232656       0.118891
                                                         0.074788       0.020343
                          1       6    6dy2              2.521825       0.831079
                                                         1.453920      -0.709226
                                                         0.614053      -0.137351
                                                         0.232656       0.068642
                                                         0.074788       0.011745
                          1       6    6dyz              2.521825       1.439472
                                                         1.453920      -1.228415
                                                         0.614053      -0.237899
                                                         0.232656       0.118891
                                                         0.074788       0.020343
                          1       6    6dz2              2.521825       0.831079
                                                         1.453920      -0.709226
                                                         0.614053      -0.137351
                                                         0.232656       0.068642
                                                         0.074788       0.011745

       Atomic covalent radius [Angstrom]:                                  1.300

       Atomic van der Waals radius [Angstrom]:                             1.750

     GTH Potential information for                                   GTH-PBE-q10

       Description:                       Goedecker-Teter-Hutter pseudopotential
                                           Goedecker et al., PRB 54, 1703 (1996)
                                          Hartwigsen et al., PRB 58, 3641 (1998)
                                                      Krack, TCA 114, 145 (2005)

       Gaussian exponent of the core charge distribution:               1.317676
       Electronic configuration (s p d ...):                           1   0   9

       Parameters of the local part of the GTH pseudopotential:

                          rloc        C1          C2          C3          C4
                        0.616000   11.313635

       Parameters of the non-local part of the GTH pseudopotential:

                   l      r(l)      h(i,j,l)

                   0    0.550904    4.733491   -1.784594
                                   -1.784594    2.303901
                   1    0.674138    2.534798   -1.778066
                                   -1.778066    2.103836
                   2    0.457392   -7.264011    2.558665
                                    2.558665   -2.901253


 MOLECULE KIND INFORMATION


 All atoms are their own molecule, skipping detailed information


 TOTAL NUMBERS AND MAXIMUM NUMBERS

  Total number of            - Atomic kinds:                                   1
                             - Atoms:                                        216
                             - Shell sets:                                   216
                             - Shells:                                      1296
                             - Primitive Cartesian functions:               1080
                             - Cartesian basis functions:                   4968
                             - Spherical basis functions:                   4320

  Maximum angular momentum of- Orbital basis functions:                        2
                             - Local part of the GTH pseudopotential:          0
                             - Non-local part of the GTH pseudopotential:      4


 MODULE QUICKSTEP:  ATOMIC COORDINATES IN angstrom

 Atom  Kind  Element       X           Y           Z          Z(eff)       Mass
    1   1 Pt  78       2.353934    0.324470   19.949937      10.0000    195.0840
    2   1 Pt  78       5.163934    0.504470   19.809937      10.0000    195.0840
    3   1 Pt  78       7.953934    0.554470   20.049935      10.0000    195.0840
    4   1 Pt  78      10.713934    0.454470   19.929932      10.0000    195.0840
    5   1 Pt  78      13.463934    0.384470   19.939934      10.0000    195.0840
    6   1 Pt  78      16.353934    0.434470   19.929932      10.0000    195.0840
    7   1 Pt  78       3.743934    2.874470   19.949937      10.0000    195.0840
    8   1 Pt  78       6.653934    2.914470   19.829934      10.0000    195.0840
    9   1 Pt  78       9.403934    2.924470   20.039937      10.0000    195.0840
   10   1 Pt  78      12.153935    2.944470   19.799935      10.0000    195.0840
   11   1 Pt  78      15.043934    2.834470   19.899933      10.0000    195.0840
   12   1 Pt  78       0.923934    2.704470   19.929932      10.0000    195.0840
   13   1 Pt  78       4.983934    5.234470   19.829934      10.0000    195.0840
   14   1 Pt  78       7.793934    5.284470   20.139935      10.0000    195.0840
   15   1 Pt  78      10.703934    5.244470   20.099934      10.0000    195.0840
   16   1 Pt  78      13.593934    5.284470   20.019936      10.0000    195.0840
   17   1 Pt  78      -0.546066    5.184470   20.079934      10.0000    195.0840
   18   1 Pt  78       2.173934    5.214470   19.909936      10.0000    195.0840
   19   1 Pt  78       6.433934    7.764470   19.909936      10.0000    195.0840
   20   1 Pt  78       9.363935    7.644470   19.869935      10.0000    195.0840
   21   1 Pt  78      12.123935    7.624470   20.079934      10.0000    195.0840
   22   1 Pt  78      -1.926066    7.704470   20.069932      10.0000    195.0840
   23   1 Pt  78       0.803934    7.674470   20.129933      10.0000    195.0840
   24   1 Pt  78       3.723934    7.674470   19.919934      10.0000    195.0840
   25   1 Pt  78       7.883934   10.194470   19.959935      10.0000    195.0840
   26   1 Pt  78      10.663934    9.974470   19.709935      10.0000    195.0840
   27   1 Pt  78      -3.296067   10.054470   19.819935      10.0000    195.0840
   28   1 Pt  78      -0.546066   10.154471   20.019936      10.0000    195.0840
   29   1 Pt  78       2.253934   10.124470   20.079934      10.0000    195.0840
   30   1 Pt  78       5.153934   10.164470   19.959935      10.0000    195.0840
   31   1 Pt  78       9.293934   12.644470   19.939934      10.0000    195.0840
   32   1 Pt  78      -4.706066   12.464470   19.839932      10.0000    195.0840
   33   1 Pt  78      -1.946066   12.604470   19.919934      10.0000    195.0840
   34   1 Pt  78       0.873934   12.604470   19.959935      10.0000    195.0840
   35   1 Pt  78       3.683934   12.514470   20.019936      10.0000    195.0840
   36   1 Pt  78       6.473934   12.624470   19.939934      10.0000    195.0840
   37   1 Pt  78       0.843934    1.294470   22.239934      10.0000    195.0840
   38   1 Pt  78       3.673934    1.254470   22.219933      10.0000    195.0840
   39   1 Pt  78       6.453934    1.104470   22.349934      10.0000    195.0840
   40   1 Pt  78       9.263934    1.054470   22.409936      10.0000    195.0840
   41   1 Pt  78      12.013934    1.094470   22.329934      10.0000    195.0840
   42   1 Pt  78      14.783935    1.174470   22.189934      10.0000    195.0840
   43   1 Pt  78       2.333934    3.694470   22.289933      10.0000    195.0840
   44   1 Pt  78       5.093934    3.704470   22.209935      10.0000    195.0840
   45   1 Pt  78       7.833934    3.474470   22.389935      10.0000    195.0840
   46   1 Pt  78      10.593934    3.544470   22.519936      10.0000    195.0840
   47   1 Pt  78      13.393934    3.644470   22.349934      10.0000    195.0840
   48   1 Pt  78      -0.636066    3.654470   22.389935      10.0000    195.0840
   49   1 Pt  78       3.813934    6.034470   22.129933      10.0000    195.0840
   50   1 Pt  78       6.473934    6.084470   22.349934      10.0000    195.0840
   51   1 Pt  78       9.113934    6.074470   22.289933      10.0000    195.0840
   52   1 Pt  78      11.933934    6.124470   22.449937      10.0000    195.0840
   53   1 Pt  78      -1.986066    6.074470   22.419934      10.0000    195.0840
   54   1 Pt  78       0.843934    5.974470   22.349934      10.0000    195.0840
   55   1 Pt  78       4.983934    8.534470   22.329934      10.0000    195.0840
   56   1 Pt  78       7.813934    8.484471   22.299935      10.0000    195.0840
   57   1 Pt  78      10.583934    8.584471   22.179936      10.0000    195.0840
   58   1 Pt  78      -3.456066    8.504470   22.349934      10.0000    195.0840
   59   1 Pt  78      -0.506066    8.464470   22.379937      10.0000    195.0840
   60   1 Pt  78       2.313934    8.434470   22.329934      10.0000    195.0840
   61   1 Pt  78       6.453934   11.004470   22.349934      10.0000    195.0840
   62   1 Pt  78       9.143934   11.014470   22.269932      10.0000    195.0840
   63   1 Pt  78      -4.866067   10.954470   22.169934      10.0000    195.0840
   64   1 Pt  78      -2.046067   10.904470   22.349934      10.0000    195.0840
   65   1 Pt  78       0.903934   10.934470   22.389935      10.0000    195.0840
   66   1 Pt  78       3.703934   11.024470   22.399933      10.0000    195.0840
   67   1 Pt  78       7.793934   13.484471   22.259934      10.0000    195.0840
   68   1 Pt  78      -6.296067   13.324471   22.269932      10.0000    195.0840
   69   1 Pt  78      -3.406067   13.414471   22.299935      10.0000    195.0840
   70   1 Pt  78      -0.626066   13.304470   22.279935      10.0000    195.0840
   71   1 Pt  78       2.243934   13.344471   22.229935      10.0000    195.0840
   72   1 Pt  78       5.173934   13.364471   22.309937      10.0000    195.0840
   73   1 Pt  78      -7.696067   14.204470   24.589936      10.0000    195.0840
   74   1 Pt  78      -4.836066   14.234471   24.499936      10.0000    195.0840
   75   1 Pt  78      -1.976066   14.154471   24.629937      10.0000    195.0840
   76   1 Pt  78       0.753934   14.054470   24.619935      10.0000    195.0840
   77   1 Pt  78       3.603934   14.144471   24.639935      10.0000    195.0840
   78   1 Pt  78       6.393934   14.264471   24.729935      10.0000    195.0840
   79   1 Pt  78       2.163934    2.114470   24.589936      10.0000    195.0840
   80   1 Pt  78       4.983934    2.114470   24.569935      10.0000    195.0840
   81   1 Pt  78       7.813934    2.034470   24.719933      10.0000    195.0840
   82   1 Pt  78      10.613935    1.884470   24.699937      10.0000    195.0840
   83   1 Pt  78      13.433934    2.024470   24.689934      10.0000    195.0840
   84   1 Pt  78      -0.646066    1.984470   24.649933      10.0000    195.0840
   85   1 Pt  78       3.693934    4.544470   24.559937      10.0000    195.0840
   86   1 Pt  78       6.413934    4.444470   24.619935      10.0000    195.0840
   87   1 Pt  78       9.253934    4.464470   24.709935      10.0000    195.0840
   88   1 Pt  78      11.963934    4.464470   24.709935      10.0000    195.0840
   89   1 Pt  78      -2.006066    4.454470   24.659936      10.0000    195.0840
   90   1 Pt  78       0.813934    4.434470   24.599934      10.0000    195.0840
   91   1 Pt  78       5.073934    6.974470   24.609933      10.0000    195.0840
   92   1 Pt  78       7.743934    6.894470   24.639935      10.0000    195.0840
   93   1 Pt  78      10.543934    7.044470   24.599934      10.0000    195.0840
   94   1 Pt  78      -3.536066    6.884470   24.689934      10.0000    195.0840
   95   1 Pt  78      -0.586066    6.854470   24.729935      10.0000    195.0840
   96   1 Pt  78       2.233934    6.864470   24.539933      10.0000    195.0840
   97   1 Pt  78       6.393934    9.414471   24.569935      10.0000    195.0840
   98   1 Pt  78       9.183934    9.334471   24.519936      10.0000    195.0840
   99   1 Pt  78      -4.866067    9.394470   24.489934      10.0000    195.0840
  100   1 Pt  78      -1.986066    9.204470   24.539933      10.0000    195.0840
  101   1 Pt  78       0.883934    9.254470   24.679932      10.0000    195.0840
  102   1 Pt  78       3.603934    9.304470   24.679932      10.0000    195.0840
  103   1 Pt  78       7.753934   11.864471   24.649933      10.0000    195.0840
  104   1 Pt  78      -6.296067   11.854470   24.489934      10.0000    195.0840
  105   1 Pt  78      -3.446066   11.774470   24.609933      10.0000    195.0840
  106   1 Pt  78      -0.656066   11.704470   24.609933      10.0000    195.0840
  107   1 Pt  78       2.133934   11.784471   24.749932      10.0000    195.0840
  108   1 Pt  78       4.863934   11.834471   24.699937      10.0000    195.0840
  109   1 Pt  78       2.123934    0.434470   26.817933      10.0000    195.0840
  110   1 Pt  78       5.003934    0.414470   26.797933      10.0000    195.0840
  111   1 Pt  78       7.803934    0.404470   26.867933      10.0000    195.0840
  112   1 Pt  78      10.433934    0.354470   26.987933      10.0000    195.0840
  113   1 Pt  78      13.293935    0.364470   27.047933      10.0000    195.0840
  114   1 Pt  78      16.153935    0.394470   26.927933      10.0000    195.0840
  115   1 Pt  78       3.643934    2.804470   26.927933      10.0000    195.0840
  116   1 Pt  78       6.363934    2.894470   26.977933      10.0000    195.0840
  117   1 Pt  78       9.113934    2.954470   26.947933      10.0000    195.0840
  118   1 Pt  78      11.893934    2.734470   26.987933      10.0000    195.0840
  119   1 Pt  78      14.753935    2.774470   26.987933      10.0000    195.0840
  120   1 Pt  78       0.733934    2.764470   27.017933      10.0000    195.0840
  121   1 Pt  78       4.933934    5.334470   26.947933      10.0000    195.0840
  122   1 Pt  78       7.693934    5.354470   26.957933      10.0000    195.0840
  123   1 Pt  78      10.533935    5.394470   27.007933      10.0000    195.0840
  124   1 Pt  78      13.263934    5.204470   26.947933      10.0000    195.0840
  125   1 Pt  78      -0.626066    5.164470   26.967933      10.0000    195.0840
  126   1 Pt  78       2.213934    5.134470   26.877933      10.0000    195.0840
  127   1 Pt  78       6.413934    7.794470   26.947933      10.0000    195.0840
  128   1 Pt  78       9.163934    7.774470   26.927933      10.0000    195.0840
  129   1 Pt  78      11.993935    7.704470   26.927933      10.0000    195.0840
  130   1 Pt  78      -2.096066    7.684470   26.977933      10.0000    195.0840
  131   1 Pt  78       0.753934    7.604470   26.937933      10.0000    195.0840
  132   1 Pt  78       3.563934    7.654470   26.977933      10.0000    195.0840
  133   1 Pt  78       7.693934   10.224470   26.897933      10.0000    195.0840
  134   1 Pt  78      10.553934   10.194470   26.827933      10.0000    195.0840
  135   1 Pt  78      -3.426066   10.184471   26.857933      10.0000    195.0840
  136   1 Pt  78      -0.676066   10.074471   27.047933      10.0000    195.0840
  137   1 Pt  78       2.113934   10.144470   27.027933      10.0000    195.0840
  138   1 Pt  78       4.913934   10.134471   26.917933      10.0000    195.0840
  139   1 Pt  78       9.163934   12.574471   26.957933      10.0000    195.0840
  140   1 Pt  78      -4.936066   12.534471   26.727933      10.0000    195.0840
  141   1 Pt  78      -2.126066   12.504471   26.947933      10.0000    195.0840
  142   1 Pt  78       0.633934   12.534471   26.947933      10.0000    195.0840
  143   1 Pt  78       3.443934   12.574471   27.087933      10.0000    195.0840
  144   1 Pt  78       6.303934   12.624470   26.957933      10.0000    195.0840
  145   1 Pt  78       0.653934    1.214470   29.337933      10.0000    195.0840
  146   1 Pt  78       3.433934    1.094470   29.157933      10.0000    195.0840
  147   1 Pt  78       6.223934    1.254470   29.077933      10.0000    195.0840
  148   1 Pt  78       9.013934    1.314470   29.237933      10.0000    195.0840
  149   1 Pt  78      11.923935    1.314470   29.367933      10.0000    195.0840
  150   1 Pt  78      14.713934    1.254470   29.247933      10.0000    195.0840
  151   1 Pt  78       2.033934    3.534470   29.327933      10.0000    195.0840
  152   1 Pt  78       4.853934    3.634470   29.277933      10.0000    195.0840
  153   1 Pt  78       7.593934    3.744470   29.407933      10.0000    195.0840
  154   1 Pt  78      10.443935    3.674470   29.207933      10.0000    195.0840
  155   1 Pt  78      13.303933    3.724470   29.257933      10.0000    195.0840
  156   1 Pt  78      -0.806066    3.684470   29.297933      10.0000    195.0840
  157   1 Pt  78       3.493934    5.914470   29.237933      10.0000    195.0840
  158   1 Pt  78       6.273935    6.144470   29.217933      10.0000    195.0840
  159   1 Pt  78       9.023935    6.134470   29.337933      10.0000    195.0840
  160   1 Pt  78      11.843934    6.154470   29.257933      10.0000    195.0840
  161   1 Pt  78      -2.006066    6.094470   29.157933      10.0000    195.0840
  162   1 Pt  78       0.733934    5.934470   29.227933      10.0000    195.0840
  163   1 Pt  78       4.793934    8.484471   29.307933      10.0000    195.0840
  164   1 Pt  78       7.653934    8.524470   29.347933      10.0000    195.0840
  165   1 Pt  78      10.523935    8.484471   29.167933      10.0000    195.0840
  166   1 Pt  78      -3.506067    8.534470   29.247933      10.0000    195.0840
  167   1 Pt  78      -0.676066    8.514470   29.297933      10.0000    195.0840
  168   1 Pt  78       2.103934    8.464470   29.277933      10.0000    195.0840
  169   1 Pt  78       6.343934   10.984471   29.337933      10.0000    195.0840
  170   1 Pt  78       9.103934   10.924471   29.177933      10.0000    195.0840
  171   1 Pt  78      -4.996067   10.904470   29.147933      10.0000    195.0840
  172   1 Pt  78      -2.166066   10.974470   29.207933      10.0000    195.0840
  173   1 Pt  78       0.553934   11.004470   29.317933      10.0000    195.0840
  174   1 Pt  78       3.473934   10.944471   29.207933      10.0000    195.0840
  175   1 Pt  78       7.673934   13.364471   29.257933      10.0000    195.0840
  176   1 Pt  78      -6.426067   13.434470   29.107933      10.0000    195.0840
  177   1 Pt  78      -3.576066   13.344471   29.037933      10.0000    195.0840
  178   1 Pt  78      -0.696066   13.394470   29.257933      10.0000    195.0840
  179   1 Pt  78       2.043934   13.344471   29.317933      10.0000    195.0840
  180   1 Pt  78       4.833934   13.364471   29.377933      10.0000    195.0840
  181   1 Pt  78      -7.926066   14.204470   31.567933      10.0000    195.0840
  182   1 Pt  78      -5.216067   14.184470   31.527933      10.0000    195.0840
  183   1 Pt  78      -2.306066   14.124470   31.447933      10.0000    195.0840
  184   1 Pt  78       0.623934   14.204470   31.547933      10.0000    195.0840
  185   1 Pt  78       3.433934   14.184470   31.627933      10.0000    195.0840
  186   1 Pt  78       6.253934   14.284471   31.677933      10.0000    195.0840
  187   1 Pt  78       1.993934    1.984470   31.767933      10.0000    195.0840
  188   1 Pt  78       4.803934    1.834470   31.477933      10.0000    195.0840
  189   1 Pt  78       7.553934    1.884470   31.627933      10.0000    195.0840
  190   1 Pt  78      10.293934    2.064470   31.607933      10.0000    195.0840
  191   1 Pt  78      13.033935    2.134470   31.737933      10.0000    195.0840
  192   1 Pt  78      -0.986066    2.034470   31.607933      10.0000    195.0840
  193   1 Pt  78       3.453934    4.344470   31.527933      10.0000    195.0840
  194   1 Pt  78       6.333934    4.254470   31.747933      10.0000    195.0840
  195   1 Pt  78       9.103934    4.504470   31.717933      10.0000    195.0840
  196   1 Pt  78      11.813934    4.554470   31.747933      10.0000    195.0840
  197   1 Pt  78      -2.266066    4.534470   31.557933      10.0000    195.0840
  198   1 Pt  78       0.613934    4.344470   31.557933      10.0000    195.0840
  199   1 Pt  78       4.833934    6.724470   31.697933      10.0000    195.0840
  200   1 Pt  78       7.643934    6.864470   31.567933      10.0000    195.0840
  201   1 Pt  78      10.453934    6.954470   31.667933      10.0000    195.0840
  202   1 Pt  78      -3.626067    6.944470   31.607933      10.0000    195.0840
  203   1 Pt  78      -0.816066    6.824470   31.527933      10.0000    195.0840
  204   1 Pt  78       1.963934    6.854470   31.667933      10.0000    195.0840
  205   1 Pt  78       6.123934    9.284471   31.497933      10.0000    195.0840
  206   1 Pt  78       8.953935    9.434470   31.607933      10.0000    195.0840
  207   1 Pt  78      -5.126067    9.344470   31.447933      10.0000    195.0840
  208   1 Pt  78      -2.246066    9.334471   31.637933      10.0000    195.0840
  209   1 Pt  78       0.503934    9.254470   31.657933      10.0000    195.0840
  210   1 Pt  78       3.263934    9.244471   31.657933      10.0000    195.0840
  211   1 Pt  78       7.583934   11.794471   31.707933      10.0000    195.0840
  212   1 Pt  78      -6.536066   11.834471   31.427933      10.0000    195.0840
  213   1 Pt  78      -3.776067   11.804470   31.437933      10.0000    195.0840
  214   1 Pt  78      -0.736066   11.894470   31.647933      10.0000    195.0840
  215   1 Pt  78       2.063934   11.694470   31.567933      10.0000    195.0840
  216   1 Pt  78       4.743934   11.764471   31.627933      10.0000    195.0840




 SCF PARAMETERS         Density guess:                                   RESTART
                        --------------------------------------------------------
                        max_scf:                                             500
                        max_scf_history:                                       0
                        max_diis:                                              4
                        --------------------------------------------------------
                        eps_scf:                                        1.00E-06
                        eps_scf_history:                                0.00E+00
                        eps_diis:                                       1.00E-01
                        eps_eigval:                                     1.00E-05
                        --------------------------------------------------------
                        level_shift [a.u.]:                             0.000000
                        added MOs                                       500    0
                        --------------------------------------------------------
                        Mixing method:                            BROYDEN_MIXING
                                                charge density mixing in g-space
                        --------------------------------------------------------
                        Smear method:                                FERMI_DIRAC
                        Electronic temperature [K]:                        300.0
                        Electronic temperature [a.u.]:                  9.50E-04
                        Accuracy threshold:                             1.00E-10
                        --------------------------------------------------------
                        No outer SCF

 PW_GRID| Information for grid number                                          1
 PW_GRID| Grid distributed over                                    32 processors
 PW_GRID| Real space group dimensions                                    32    1
 PW_GRID| the grid is blocked:                                                NO
 PW_GRID| Cutoff [a.u.]                                                    200.0
 PW_GRID| spherical cutoff:                                                   NO
 PW_GRID|   Bounds   1           -105     104                Points:         210
 PW_GRID|   Bounds   2           -105     104                Points:         210
 PW_GRID|   Bounds   3           -315     314                Points:         630
 PW_GRID| Volume element (a.u.^3)  0.3081E-02     Volume (a.u.^3)     85609.9578
 PW_GRID| Grid span                                                    FULLSPACE
 PW_GRID|   Distribution                         Average         Max         Min
 PW_GRID|   G-Vectors                           868218.8      868350      868140
 PW_GRID|   G-Rays                                4134.4        4135        4134
 PW_GRID|   Real Space Points                   868218.8      926100      793800

 PW_GRID| Information for grid number                                          2
 PW_GRID| Number of the reference grid                                         1
 PW_GRID| Grid distributed over                                    32 processors
 PW_GRID| Real space group dimensions                                    32    1
 PW_GRID| the grid is blocked:                                                NO
 PW_GRID| Cutoff [a.u.]                                                     66.7
 PW_GRID| spherical cutoff:                                                   NO
 PW_GRID|   Bounds   1            -60      59                Points:         120
 PW_GRID|   Bounds   2            -60      59                Points:         120
 PW_GRID|   Bounds   3           -180     179                Points:         360
 PW_GRID| Volume element (a.u.^3)  0.1651E-01     Volume (a.u.^3)     85609.9578
 PW_GRID| Grid span                                                    FULLSPACE
 PW_GRID|   Distribution                         Average         Max         Min
 PW_GRID|   G-Vectors                           162000.0      162840      161280
 PW_GRID|   G-Rays                                1350.0        1357        1344
 PW_GRID|   Real Space Points                   162000.0      172800      129600

 PW_GRID| Information for grid number                                          3
 PW_GRID| Number of the reference grid                                         1
 PW_GRID| Grid distributed over                                    32 processors
 PW_GRID| Real space group dimensions                                    32    1
 PW_GRID| the grid is blocked:                                                NO
 PW_GRID| Cutoff [a.u.]                                                     22.2
 PW_GRID| spherical cutoff:                                                   NO
 PW_GRID|   Bounds   1            -35      34                Points:          70
 PW_GRID|   Bounds   2            -35      34                Points:          70
 PW_GRID|   Bounds   3           -105     104                Points:         210
 PW_GRID| Volume element (a.u.^3)  0.8320E-01     Volume (a.u.^3)     85609.9578
 PW_GRID| Grid span                                                    FULLSPACE
 PW_GRID|   Distribution                         Average         Max         Min
 PW_GRID|   G-Vectors                            32156.2       32340       31990
 PW_GRID|   G-Rays                                 459.4         462         457
 PW_GRID|   Real Space Points                    32156.2       44100       29400

 PW_GRID| Information for grid number                                          4
 PW_GRID| Number of the reference grid                                         1
 PW_GRID| Grid distributed over                                    32 processors
 PW_GRID| Real space group dimensions                                    32    1
 PW_GRID| the grid is blocked:                                                NO
 PW_GRID| Cutoff [a.u.]                                                      7.4
 PW_GRID| spherical cutoff:                                                   NO
 PW_GRID|   Bounds   1            -20      19                Points:          40
 PW_GRID|   Bounds   2            -20      19                Points:          40
 PW_GRID|   Bounds   3            -60      59                Points:         120
 PW_GRID| Volume element (a.u.^3)  0.4459         Volume (a.u.^3)     85609.9578
 PW_GRID| Grid span                                                    FULLSPACE
 PW_GRID|   Distribution                         Average         Max         Min
 PW_GRID|   G-Vectors                             6000.0        6120        5920
 PW_GRID|   G-Rays                                 150.0         153         148
 PW_GRID|   Real Space Points                     6000.0        9600        4800

 POISSON| Solver                                          IMPLICIT (GENERALIZED)
 POISSON| Boundary Condition                                PERIODIC & DIRICHLET
 POISSON| Maximum number of iterations                                        30
 POISSON| Convergence threshold                                         1.00E-08
 POISSON| Dielectric Constant                                              80.00
 POISSON| Relaxation parameter                                          1.00E+00

 RS_GRID| Information for grid number                                          1
 RS_GRID|   Bounds   1           -105     104                Points:         210
 RS_GRID|   Bounds   2           -105     104                Points:         210
 RS_GRID|   Bounds   3           -315     314                Points:         630
 RS_GRID| Real space distribution over                                 32 groups
 RS_GRID| Real space distribution along direction                              3
 RS_GRID| Border size                                                         54
 RS_GRID|   Distribution                         Average         Max         Min
 RS_GRID|   Planes                                 127.7         128         127

 RS_GRID| Information for grid number                                          2
 RS_GRID|   Bounds   1            -60      59                Points:         120
 RS_GRID|   Bounds   2            -60      59                Points:         120
 RS_GRID|   Bounds   3           -180     179                Points:         360
 RS_GRID| Real space distribution over                                 32 groups
 RS_GRID| Real space distribution along direction                              3
 RS_GRID| Border size                                                         36
 RS_GRID|   Distribution                         Average         Max         Min
 RS_GRID|   Planes                                  83.2          84          83

 RS_GRID| Information for grid number                                          3
 RS_GRID|   Bounds   1            -35      34                Points:          70
 RS_GRID|   Bounds   2            -35      34                Points:          70
 RS_GRID|   Bounds   3           -105     104                Points:         210
 RS_GRID| Real space fully replicated
 RS_GRID| Group size                                                           1

 RS_GRID| Information for grid number                                          4
 RS_GRID|   Bounds   1            -20      19                Points:          40
 RS_GRID|   Bounds   2            -20      19                Points:          40
 RS_GRID|   Bounds   3            -60      59                Points:         120
 RS_GRID| Real space fully replicated
 RS_GRID| Group size                                                           1

 Number of electrons:                                                       2160
 Number of occupied orbitals:                                               1080
 Number of molecular orbitals:                                              1580

 Number of orbital functions:                                               4320
 Number of independent orbital functions:                                   4320

 Extrapolation method: initial_guess


 SCF WAVEFUNCTION OPTIMIZATION

  Step     Update method      Time    Convergence         Total energy    Change
  ------------------------------------------------------------------------------

  POISSON| IMPLICIT (GENERALIZED) SOLVER ---------------------------------------
  POISSON| Preparing Dirichlet regions ...
  POISSON| Dirichlet region    1
  POISSON|     type : axis-aligned planar
  POISSON|     applied potential :   0.0000E+00  [Eh/e]
  POISSON| Dirichlet region    2
  POISSON|     type : axis-aligned planar
  POISSON|     applied potential :   0.3675E-01  [Eh/e]
  POISSON| ... Done. 
  ------------------------------------------------------------------------------

  POISSON|   iter        pres error      nabs error        E_hartree    delta E
  POISSON|      1        0.7385E-03      0.3340E-01    1992.4663531576  0.20E+04
  POISSON|      2        0.1463E-14      0.7385E-03    1992.4698662236  0.35E-02
  POISSON| Poisson solver converged in 2 iterations.
     1 NoMix/Diag. 0.30E+00   11.1     0.18478367     -5670.8089483230 -5.67E+03
  POISSON|   iter        pres error      nabs error        E_hartree    delta E
  POISSON|      1        0.7110E-03      0.3317E-01    1992.3398162288 -0.13E+00
  POISSON|      2        0.1233E-14      0.7110E-03    1992.3431983069  0.34E-02
  POISSON| Poisson solver converged in 2 iterations.
     2 Broy./Diag. 0.30E+00   13.2     0.22739332     -5670.7396834422  6.93E-02
  POISSON|   iter        pres error      nabs error        E_hartree    delta E
  POISSON|      1        0.6107E-04      0.3737E-03    1992.5419899903  0.20E+00
  POISSON|      2        0.7286E-16      0.6107E-04    1992.5422805050  0.29E-03
  POISSON| Poisson solver converged in 2 iterations.
     3 Broy./Diag. 0.30E+00   13.2     0.13954461     -5675.9882771744 -5.25E+00
  POISSON|   iter        pres error      nabs error        E_hartree    delta E
  POISSON|      1        0.7888E-04      0.3180E-03    1992.5845199632  0.42E-01
  POISSON|      2        0.7065E-16      0.7888E-04    1992.5841447326 -0.38E-03
  POISSON| Poisson solver converged in 2 iterations.
     4 Broy./Diag. 0.30E+00   13.3     0.12432725     -5673.0132039162  2.98E+00
  POISSON|   iter        pres error      nabs error        E_hartree    delta E
  POISSON|      1        0.4996E-04      0.1997E-03    1992.6963135986  0.11E+00
  POISSON|      2        0.2208E-16      0.4996E-04    1992.6965512375  0.24E-03
  POISSON| Poisson solver converged in 2 iterations.
     5 Broy./Diag. 0.30E+00   13.3     0.09061719     -5672.3675808225  6.46E-01
  POISSON|   iter        pres error      nabs error        E_hartree    delta E
  POISSON|      1        0.5998E-05      0.4727E-04    1992.8127376484  0.12E+00
  POISSON|      2        0.1001E-16      0.5998E-05    1992.8127091156 -0.29E-04
  POISSON| Poisson solver converged in 2 iterations.
     6 Broy./Diag. 0.30E+00   13.3     0.04850502     -5672.7585338708 -3.91E-01
  POISSON|   iter        pres error      nabs error        E_hartree    delta E
  POISSON|      1        0.1858E-05      0.3457E-04    1992.9230145376  0.11E+00
  POISSON|      2        0.7602E-17      0.1858E-05    1992.9230056979 -0.88E-05
  POISSON| Poisson solver converged in 2 iterations.
     7 Broy./Diag. 0.30E+00   13.3     0.02598444     -5672.3672203456  3.91E-01
  POISSON|   iter        pres error      nabs error        E_hartree    delta E
  POISSON|      1        0.1797E-05      0.3354E-04    1992.9946952097  0.72E-01
  POISSON|      2        0.7623E-17      0.1797E-05    1992.9946866625 -0.85E-05
  POISSON| Poisson solver converged in 2 iterations.
     8 Broy./Diag. 0.30E+00   13.5     0.02019570     -5672.0801130761  2.87E-01
  POISSON|   iter        pres error      nabs error        E_hartree    delta E
  POISSON|      1        0.8588E-06      0.1007E-04    1993.0244984115  0.30E-01
  POISSON|      2        0.4252E-17      0.8588E-06    1993.0245024965  0.41E-05
  POISSON| Poisson solver converged in 2 iterations.
     9 Broy./Diag. 0.30E+00   13.5     0.00984914     -5672.3552299127 -2.75E-01
  POISSON|   iter        pres error      nabs error        E_hartree    delta E
  POISSON|      1        0.4692E-06      0.5385E-05    1993.0385551975  0.14E-01
  POISSON|      2        0.2811E-17      0.4692E-06    1993.0385574294  0.22E-05
  POISSON| Poisson solver converged in 2 iterations.
    10 Broy./Diag. 0.30E+00   13.5     0.00351333     -5672.2697730982  8.55E-02
  POISSON|   iter        pres error      nabs error        E_hartree    delta E
  POISSON|      1        0.8917E-08      0.5124E-05    1993.0473385284  0.88E-02
  POISSON| Poisson solver converged in 1 iteration. 
    11 Broy./Diag. 0.30E+00   12.1     0.00341260     -5672.2388908404  3.09E-02
  POISSON|   iter        pres error      nabs error        E_hartree    delta E
  POISSON|      1        0.2251E-06      0.5403E-05    1993.0557913651  0.85E-02
  POISSON|      2        0.1087E-16      0.2251E-06    1993.0557902943 -0.11E-05
  POISSON| Poisson solver converged in 2 iterations.
    12 Broy./Diag. 0.30E+00   13.5     0.00264168     -5672.2447208669 -5.83E-03
  POISSON|   iter        pres error      nabs error        E_hartree    delta E
  POISSON|      1        0.5668E-07      0.3302E-05    1993.0622910392  0.65E-02
  POISSON|      2        0.1206E-16      0.5668E-07    1993.0622907695 -0.27E-06
  POISSON| Poisson solver converged in 2 iterations.
    13 Broy./Diag. 0.30E+00   13.5     0.00144448     -5672.2594959063 -1.48E-02
  POISSON|   iter        pres error      nabs error        E_hartree    delta E
  POISSON|      1        0.1566E-06      0.1721E-05    1993.0634966439  0.12E-02
  POISSON|      2        0.4208E-17      0.1566E-06    1993.0634973889  0.75E-06
  POISSON| Poisson solver converged in 2 iterations.
    14 Broy./Diag. 0.30E+00   13.5     0.00072756     -5672.2468336270  1.27E-02
  POISSON|   iter        pres error      nabs error        E_hartree    delta E
  POISSON|      1        0.2114E-06      0.2317E-05    1993.0646581215  0.12E-02
  POISSON|      2        0.1330E-16      0.2114E-06    1993.0646571162 -0.10E-05
  POISSON| Poisson solver converged in 2 iterations.
    15 Broy./Diag. 0.30E+00   13.5     0.00067259     -5672.2509570071 -4.12E-03
  POISSON|   iter        pres error      nabs error        E_hartree    delta E
  POISSON|      1        0.4156E-07      0.2447E-05    1993.0656793270  0.10E-02
  POISSON|      2        0.7690E-17      0.4156E-07    1993.0656791293 -0.20E-06
  POISSON| Poisson solver converged in 2 iterations.
    16 Broy./Diag. 0.30E+00   13.5     0.00050491     -5672.2566491394 -5.69E-03
  POISSON|   iter        pres error      nabs error        E_hartree    delta E
  POISSON|      1        0.1375E-06      0.1535E-05    1993.0666163836  0.94E-03
  POISSON|      2        0.3344E-18      0.1375E-06    1993.0666170377  0.65E-06
  POISSON| Poisson solver converged in 2 iterations.
    17 Broy./Diag. 0.30E+00   13.5     0.00053344     -5672.2582405461 -1.59E-03
  POISSON|   iter        pres error      nabs error        E_hartree    delta E
  POISSON|      1        0.2130E-06      0.1230E-05    1993.0668740511  0.26E-03
  POISSON|      2        0.5702E-17      0.2130E-06    1993.0668730377 -0.10E-05
  POISSON| Poisson solver converged in 2 iterations.
    18 Broy./Diag. 0.30E+00   13.5     0.00054469     -5672.2605433553 -2.30E-03
  POISSON|   iter        pres error      nabs error        E_hartree    delta E
  POISSON|      1        0.9088E-07      0.9109E-06    1993.0672343572  0.36E-03
  POISSON|      2        0.1003E-18      0.9088E-07    1993.0672347895  0.43E-06
  POISSON| Poisson solver converged in 2 iterations.
    19 Broy./Diag. 0.30E+00   13.6     0.00031031     -5672.2599584736  5.85E-04
  POISSON|   iter        pres error      nabs error        E_hartree    delta E
  POISSON|      1        0.7615E-07      0.8097E-06    1993.0675934695  0.36E-03
  POISSON|      2        0.3286E-18      0.7615E-07    1993.0675931072 -0.36E-06
  POISSON| Poisson solver converged in 2 iterations.
    20 Broy./Diag. 0.30E+00   13.5     0.00019018     -5672.2632833314 -3.32E-03
  POISSON|   iter        pres error      nabs error        E_hartree    delta E
  POISSON|      1        0.1838E-07      0.1005E-05    1993.0682659436  0.67E-03
  POISSON|      2        0.1238E-17      0.1838E-07    1993.0682660310  0.87E-07
  POISSON| Poisson solver converged in 2 iterations.
    21 Broy./Diag. 0.30E+00   13.7     0.00015180     -5672.2638372122 -5.54E-04
  POISSON|   iter        pres error      nabs error        E_hartree    delta E
  POISSON|      1        0.1631E-07      0.1273E-05    1993.0689461608  0.68E-03
  POISSON|      2        0.1070E-18      0.1631E-07    1993.0689460832 -0.78E-07
  POISSON| Poisson solver converged in 2 iterations.
    22 Broy./Diag. 0.30E+00   13.5     0.00015225     -5672.2627328815  1.10E-03
  POISSON|   iter        pres error      nabs error        E_hartree    delta E
  POISSON|      1        0.2657E-07      0.1302E-05    1993.0696076956  0.66E-03
  POISSON|      2        0.1077E-17      0.2657E-07    1993.0696075692 -0.13E-06
  POISSON| Poisson solver converged in 2 iterations.
    23 Broy./Diag. 0.30E+00   13.5     0.00012910     -5672.2636646694 -9.32E-04
  POISSON|   iter        pres error      nabs error        E_hartree    delta E
  POISSON|      1        0.2050E-07      0.9642E-06    1993.0701982513  0.59E-03
  POISSON|      2        0.1627E-17      0.2050E-07    1993.0701981538 -0.97E-07
  POISSON| Poisson solver converged in 2 iterations.
    24 Broy./Diag. 0.30E+00   13.5     0.00008914     -5672.2657864024 -2.12E-03
  POISSON|   iter        pres error      nabs error        E_hartree    delta E
  POISSON|      1        0.1346E-07      0.8044E-06    1993.0706018969  0.40E-03
  POISSON|      2        0.4533E-17      0.1346E-07    1993.0706019609  0.64E-07
  POISSON| Poisson solver converged in 2 iterations.
    25 Broy./Diag. 0.30E+00   13.5     0.00007687     -5672.2652489054  5.37E-04
  POISSON|   iter        pres error      nabs error        E_hartree    delta E
  POISSON|      1        0.2604E-07      0.8050E-06    1993.0709197689  0.32E-03
  POISSON|      2        0.3184E-17      0.2604E-07    1993.0709196450 -0.12E-06
  POISSON| Poisson solver converged in 2 iterations.
    26 Broy./Diag. 0.30E+00   13.5     0.00008486     -5672.2657745347 -5.26E-04
  POISSON|   iter        pres error      nabs error        E_hartree    delta E
  POISSON|      1        0.2175E-07      0.7883E-06    1993.0712394063  0.32E-03
  POISSON|      2        0.4853E-17      0.2175E-07    1993.0712393028 -0.10E-06
  POISSON| Poisson solver converged in 2 iterations.
    27 Broy./Diag. 0.30E+00   13.5     0.00006663     -5672.2667518662 -9.77E-04
  POISSON|   iter        pres error      nabs error        E_hartree    delta E
  POISSON|      1        0.2249E-07      0.4889E-06    1993.0714135982  0.17E-03
  POISSON|      2        0.3240E-18      0.2249E-07    1993.0714137052  0.11E-06
  POISSON| Poisson solver converged in 2 iterations.
    28 Broy./Diag. 0.30E+00   13.5     0.00008241     -5672.2670082276 -2.56E-04
  POISSON|   iter        pres error      nabs error        E_hartree    delta E
  POISSON|      1        0.2975E-07      0.3626E-06    1993.0715098382  0.96E-04
  POISSON|      2        0.5397E-18      0.2975E-07    1993.0715096966 -0.14E-06
  POISSON| Poisson solver converged in 2 iterations.
    29 Broy./Diag. 0.30E+00   13.6     0.00006718     -5672.2673559656 -3.48E-04
  POISSON|   iter        pres error      nabs error        E_hartree    delta E
  POISSON|      1        0.1698E-07      0.4293E-06    1993.0715827435  0.73E-04
  POISSON|      2        0.4326E-18      0.1698E-07    1993.0715828242  0.81E-07
  POISSON| Poisson solver converged in 2 iterations.
    30 Broy./Diag. 0.30E+00   13.6     0.00005703     -5672.2670847331  2.71E-04
  POISSON|   iter        pres error      nabs error        E_hartree    delta E
  POISSON|      1        0.1529E-07      0.4011E-06    1993.0716090303  0.26E-04
  POISSON|      2        0.1497E-17      0.1529E-07    1993.0716089576 -0.73E-07
  POISSON| Poisson solver converged in 2 iterations.
    31 Broy./Diag. 0.30E+00   13.5     0.00004559     -5672.2678425401 -7.58E-04
  POISSON|   iter        pres error      nabs error        E_hartree    delta E
  POISSON|      1        0.9108E-09      0.4241E-06    1993.0717000364  0.91E-04
  POISSON| Poisson solver converged in 1 iteration. 
    32 Broy./Diag. 0.30E+00   12.3     0.00004316     -5672.2683722348 -5.30E-04
  POISSON|   iter        pres error      nabs error        E_hartree    delta E
  POISSON|      1        0.1505E-08      0.1852E-06    1993.0717061328  0.61E-05
  POISSON| Poisson solver converged in 1 iteration. 
    33 Broy./Diag. 0.30E+00   12.2     0.00003384     -5672.2682700507  1.02E-04
  POISSON|   iter        pres error      nabs error        E_hartree    delta E
  POISSON|      1        0.1737E-08      0.2938E-06    1993.0717533110  0.47E-04
  POISSON| Poisson solver converged in 1 iteration. 
    34 Broy./Diag. 0.30E+00   12.2     0.00001884     -5672.2681330585  1.37E-04
  POISSON|   iter        pres error      nabs error        E_hartree    delta E
  POISSON|      1        0.5151E-08      0.2208E-06    1993.0717998776  0.47E-04
  POISSON| Poisson solver converged in 1 iteration. 
    35 Broy./Diag. 0.30E+00   12.2     0.00001755     -5672.2685188472 -3.86E-04
  POISSON|   iter        pres error      nabs error        E_hartree    delta E
  POISSON|      1        0.5519E-08      0.2053E-06    1993.0718479611  0.48E-04
  POISSON| Poisson solver converged in 1 iteration. 
    36 Broy./Diag. 0.30E+00   12.1     0.00002557     -5672.2683605261  1.58E-04
  POISSON|   iter        pres error      nabs error        E_hartree    delta E
  POISSON|      1        0.2118E-09      0.1728E-06    1993.0718841164  0.36E-04
  POISSON| Poisson solver converged in 1 iteration. 
    37 Broy./Diag. 0.30E+00   12.1     0.00001975     -5672.2682443541  1.16E-04
  POISSON|   iter        pres error      nabs error        E_hartree    delta E
  POISSON|      1        0.6426E-08      0.1221E-06    1993.0719148917  0.31E-04
  POISSON| Poisson solver converged in 1 iteration. 
    38 Broy./Diag. 0.30E+00   12.1     0.00002122     -5672.2683855243 -1.41E-04
  POISSON|   iter        pres error      nabs error        E_hartree    delta E
  POISSON|      1        0.6964E-08      0.8812E-07    1993.0719343525  0.19E-04
  POISSON| Poisson solver converged in 1 iteration. 
    39 Broy./Diag. 0.30E+00   12.2     0.00002168     -5672.2683513348  3.42E-05
  POISSON|   iter        pres error      nabs error        E_hartree    delta E
  POISSON|      1        0.5015E-08      0.1134E-06    1993.0719614265  0.27E-04
  POISSON| Poisson solver converged in 1 iteration. 
    40 Broy./Diag. 0.30E+00   12.2     0.00001445     -5672.2683787827 -2.74E-05
  POISSON|   iter        pres error      nabs error        E_hartree    delta E
  POISSON|      1        0.3075E-08      0.1276E-06    1993.0719889867  0.28E-04
  POISSON| Poisson solver converged in 1 iteration. 
    41 Broy./Diag. 0.30E+00   12.2     0.00001162     -5672.2683301970  4.86E-05
  POISSON|   iter        pres error      nabs error        E_hartree    delta E
  POISSON|      1        0.1228E-08      0.1350E-06    1993.0720087974  0.20E-04
  POISSON| Poisson solver converged in 1 iteration. 
    42 Broy./Diag. 0.30E+00   12.3     0.00001298     -5672.2683222081  7.99E-06
  POISSON|   iter        pres error      nabs error        E_hartree    delta E
  POISSON|      1        0.4836E-09      0.1191E-06    1993.0720269393  0.18E-04
  POISSON| Poisson solver converged in 1 iteration. 
    43 Broy./Diag. 0.30E+00   12.2     0.00001044     -5672.2684775613 -1.55E-04
  POISSON|   iter        pres error      nabs error        E_hartree    delta E
  POISSON|      1        0.2148E-09      0.6978E-07    1993.0720399320  0.13E-04
  POISSON| Poisson solver converged in 1 iteration. 
    44 Broy./Diag. 0.30E+00   12.2     0.00000798     -5672.2685062503 -2.87E-05
  POISSON|   iter        pres error      nabs error        E_hartree    delta E
  POISSON|      1        0.6939E-09      0.9259E-07    1993.0720450620  0.51E-05
  POISSON| Poisson solver converged in 1 iteration. 
    45 Broy./Diag. 0.30E+00   12.2     0.00000586     -5672.2684194249  8.68E-05
  POISSON|   iter        pres error      nabs error        E_hartree    delta E
  POISSON|      1        0.1576E-08      0.8632E-07    1993.0720523793  0.73E-05
  POISSON| Poisson solver converged in 1 iteration. 
    46 Broy./Diag. 0.30E+00   12.1     0.00000674     -5672.2685507909 -1.31E-04
  POISSON|   iter        pres error      nabs error        E_hartree    delta E
  POISSON|      1        0.4327E-09      0.7092E-07    1993.0720594090  0.70E-05
  POISSON| Poisson solver converged in 1 iteration. 
    47 Broy./Diag. 0.30E+00   12.1     0.00000667     -5672.2685740040 -2.32E-05
  POISSON|   iter        pres error      nabs error        E_hartree    delta E
  POISSON|      1        0.1817E-08      0.5707E-07    1993.0720638089  0.44E-05
  POISSON| Poisson solver converged in 1 iteration. 
    48 Broy./Diag. 0.30E+00   12.1     0.00000755     -5672.2685493983  2.46E-05
  POISSON|   iter        pres error      nabs error        E_hartree    delta E
  POISSON|      1        0.2968E-08      0.4789E-07    1993.0720685857  0.48E-05
  POISSON| Poisson solver converged in 1 iteration. 
    49 Broy./Diag. 0.30E+00   12.1     0.00000857     -5672.2685988424 -4.94E-05
  POISSON|   iter        pres error      nabs error        E_hartree    delta E
  POISSON|      1        0.2102E-08      0.3535E-07    1993.0720744654  0.59E-05
  POISSON| Poisson solver converged in 1 iteration. 
    50 Broy./Diag. 0.30E+00   12.1     0.00000619     -5672.2686015944 -2.75E-06
  POISSON|   iter        pres error      nabs error        E_hartree    delta E
  POISSON|      1        0.1120E-08      0.4365E-07    1993.0720820426  0.76E-05
  POISSON| Poisson solver converged in 1 iteration. 
    51 Broy./Diag. 0.30E+00   12.1     0.00000413     -5672.2686043097 -2.72E-06
  POISSON|   iter        pres error      nabs error        E_hartree    delta E
  POISSON|      1        0.5511E-09      0.3491E-07    1993.0720919055  0.99E-05
  POISSON| Poisson solver converged in 1 iteration. 
    52 Broy./Diag. 0.30E+00   12.1     0.00000396     -5672.2686096582 -5.35E-06
  POISSON|   iter        pres error      nabs error        E_hartree    delta E
  POISSON|      1        0.1526E-09      0.4478E-07    1993.0721016043  0.97E-05
  POISSON| Poisson solver converged in 1 iteration. 
    53 Broy./Diag. 0.30E+00   12.2     0.00000336     -5672.2685738232  3.58E-05
  POISSON|   iter        pres error      nabs error        E_hartree    delta E
  POISSON|      1        0.4891E-11      0.2080E-07    1993.0721058137  0.42E-05
  POISSON| Poisson solver converged in 1 iteration. 
    54 Broy./Diag. 0.30E+00   12.2     0.00000318     -5672.2685893741 -1.56E-05
  POISSON|   iter        pres error      nabs error        E_hartree    delta E
  POISSON|      1        0.2541E-11      0.3281E-07    1993.0721157217  0.99E-05
  POISSON| Poisson solver converged in 1 iteration. 
    55 Broy./Diag. 0.30E+00   12.1     0.00000252     -5672.2686249620 -3.56E-05
  POISSON|   iter        pres error      nabs error        E_hartree    delta E
  POISSON|      1        0.6475E-09      0.2346E-07    1993.0721207214  0.50E-05
  POISSON| Poisson solver converged in 1 iteration. 
    56 Broy./Diag. 0.30E+00   12.1     0.00000217     -5672.2685827246  4.22E-05
  POISSON|   iter        pres error      nabs error        E_hartree    delta E
  POISSON|      1        0.1534E-09      0.2194E-07    1993.0721245858  0.39E-05
  POISSON| Poisson solver converged in 1 iteration. 
    57 Broy./Diag. 0.30E+00   12.1     0.00000203     -5672.2686035435 -2.08E-05
  POISSON|   iter        pres error      nabs error        E_hartree    delta E
  POISSON|      1        0.2120E-09      0.1812E-07    1993.0721281424  0.36E-05
  POISSON| Poisson solver converged in 1 iteration. 
    58 Broy./Diag. 0.30E+00   12.1     0.00000209     -5672.2686211945 -1.77E-05
  POISSON|   iter        pres error      nabs error        E_hartree    delta E
  POISSON|      1        0.9862E-09      0.1734E-07    1993.0721304088  0.23E-05
  POISSON| Poisson solver converged in 1 iteration. 
    59 Broy./Diag. 0.30E+00   12.2     0.00000250     -5672.2686122701  8.92E-06
  POISSON|   iter        pres error      nabs error        E_hartree    delta E
  POISSON|      1        0.8381E-09      0.1095E-07    1993.0721307914  0.38E-06
  POISSON| Poisson solver converged in 1 iteration. 
    60 Broy./Diag. 0.30E+00   12.1     0.00000238     -5672.2686241624 -1.19E-05
  POISSON|   iter        pres error      nabs error        E_hartree    delta E
  POISSON|      1        0.6694E-09      0.1831E-07    1993.0721323580  0.16E-05
  POISSON| Poisson solver converged in 1 iteration. 
    61 Broy./Diag. 0.30E+00   12.1     0.00000198     -5672.2686300171 -5.85E-06
  POISSON|   iter        pres error      nabs error        E_hartree    delta E
  POISSON|      1        0.1151E-09      0.1645E-07    1993.0721322991 -0.59E-07
  POISSON| Poisson solver converged in 1 iteration. 
    62 Broy./Diag. 0.30E+00   12.1     0.00000163     -5672.2686338073 -3.79E-06
  POISSON|   iter        pres error      nabs error        E_hartree    delta E
  POISSON|      1        0.1279E-09      0.1884E-07    1993.0721336429  0.13E-05
  POISSON| Poisson solver converged in 1 iteration. 
    63 Broy./Diag. 0.30E+00   12.1     0.00000135     -5672.2686487402 -1.49E-05
  POISSON|   iter        pres error      nabs error        E_hartree    delta E
  POISSON|      1        0.1140E-09      0.1025E-07    1993.0721339809  0.34E-06
  POISSON| Poisson solver converged in 1 iteration. 
    64 Broy./Diag. 0.30E+00   12.1     0.00000138     -5672.2686456897  3.05E-06
  POISSON|   iter        pres error      nabs error        E_hartree    delta E
  POISSON|      1        0.1301E-09      0.1698E-07    1993.0721345253  0.54E-06
  POISSON| Poisson solver converged in 1 iteration. 
    65 Broy./Diag. 0.30E+00   12.2     0.00000091     -5672.2686327586  1.29E-05

  *** SCF run converged in    65 steps ***


  Electronic density on regular grids:      -2159.9999999992        0.0000000008
  Core density on regular grids:             2159.9999999995       -0.0000000005
  Total charge density on r-space grids:        0.0000000003
  Total charge density g-space grids:           0.0000000003

  Overlap energy of the core charge distribution:               0.00003183472507
  Self energy of the core charge distribution:              -9891.63555570741482
  Core Hamiltonian energy:                                   3202.10709200721521
  Hartree energy:                                            1993.07213452531369
  Electric enthalpy:                                         1993.06514864764040
  Exchange-correlation energy:                               -971.07429779239396
  Dispersion energy:                                           -4.69913850405814
  Electronic entropic energy:                                  -0.03191314722156
  Fermi energy:                                                -0.22675845288378

  Total energy:                                             -5672.26863275855521

 The electron density is written in cube file format to the file:

 cp2k-ELECTRON_DENSITY-1_0.cube

 !-----------------------------------------------------------------------------!
                     Mulliken Population Analysis

 #  Atom  Element  Kind  Atomic population                           Net charge
       1     Pt       1         10.053922                             -0.053922
       2     Pt       1         10.049306                             -0.049306
       3     Pt       1         10.058655                             -0.058655
       4     Pt       1         10.037865                             -0.037865
       5     Pt       1         10.052284                             -0.052284
       6     Pt       1         10.028280                             -0.028280
       7     Pt       1         10.050245                             -0.050245
       8     Pt       1         10.029697                             -0.029697
       9     Pt       1         10.032546                             -0.032546
      10     Pt       1         10.039977                             -0.039977
[...]
    191      1      Pt          0.01721907    -0.00458529    -0.00717778
    192      1      Pt          0.00905625     0.00816038     0.00340077
    193      1      Pt         -0.00127277     0.00222711     0.01554180
    194      1      Pt         -0.01497317     0.01811854    -0.00510764
    195      1      Pt         -0.00588867     0.00088395    -0.00508023
    196      1      Pt         -0.00079160    -0.00076323    -0.01524739
    197      1      Pt         -0.00333672    -0.00692234     0.00428338
    198      1      Pt         -0.00276123     0.00973630     0.01059734
    199      1      Pt         -0.00214948     0.00563984    -0.01494317
    200      1      Pt         -0.00706134    -0.00317787     0.01281736
    201      1      Pt         -0.00361709    -0.00126143    -0.00478393
    202      1      Pt         -0.00273527    -0.00255815    -0.00736983
    203      1      Pt          0.00139927     0.00751696     0.00362601
    204      1      Pt          0.00591536    -0.00860605    -0.01033007
    205      1      Pt         -0.00102290     0.00223222     0.01946442
    206      1      Pt          0.00558526    -0.00800619    -0.00595720
    207      1      Pt          0.00579353     0.00254719     0.01125341
    208      1      Pt         -0.00132179     0.00965216    -0.01109780
    209      1      Pt          0.00542318     0.00800998    -0.00004406
    210      1      Pt          0.01388431     0.00196460    -0.00453816
    211      1      Pt         -0.00819761     0.00243195    -0.00749776
    212      1      Pt          0.00222114    -0.00882618     0.00968124
    213      1      Pt          0.01377237    -0.00385416     0.00028888
    214      1      Pt         -0.01211338    -0.02283151    -0.00363565
    215      1      Pt         -0.01074693     0.00312041     0.00492927
    216      1      Pt          0.01093668    -0.00989887    -0.00036751
 SUM OF ATOMIC FORCES          -0.00002337    -0.00000508     0.00004292     0.00004913

 -------------------------------------------------------------------------------
 -                                                                             -
 -                                DBCSR STATISTICS                             -
 -                                                                             -
 -------------------------------------------------------------------------------
 COUNTER                                    TOTAL       BLAS       SMM       ACC
 flops    20 x    12 x    20            447897600       0.0%    100.0%      0.0%
 flops    20 x    32 x    20          58525286400       0.0%    100.0%      0.0%
 flops    20 x    20 x   204         256258598400       0.0%    100.0%      0.0%
 flops    20 x    20 x   224         281381990400       0.0%    100.0%      0.0%
 flops    20 x    20 x   192        1447107379200       0.0%    100.0%      0.0%
 flops inhomo. stacks                           0       0.0%      0.0%      0.0%
 flops total                         2.043721E+12       0.0%    100.0%      0.0%
 flops max/rank                     65.588941E+09       0.0%    100.0%      0.0%
 matmuls inhomo. stacks                         0       0.0%      0.0%      0.0%
 matmuls total                           14894496       0.0%    100.0%      0.0%
 number of processed stacks                 19584       0.0%    100.0%      0.0%
 average stack size                                     0.0     760.5       0.0
 marketing flops                     2.910251E+12
 -------------------------------------------------------------------------------
 # multiplications                             68
 max memory usage/rank               1.814049E+09
 # max total images/rank                        2
 # max 3D layers                                1
 # MPI messages exchanged                   28288
 MPI messages size (bytes):
  total size                        37.794124E+09
  min size                         829.440000E+03
  max size                           4.665600E+06
  average size                       1.336048E+06
 MPI breakdown and total messages size (bytes):
             size <=      128                   0                        0
       128 < size <=     8192                   0                        0
      8192 < size <=    32768                   0                        0
     32768 < size <=   131072                   0                        0
    131072 < size <=  4194304               28064              36749030400
   4194304 < size <= 16777216                 224               1045094400
  16777216 < size                               0                        0
 -------------------------------------------------------------------------------

 *** WARNING in dbcsr_mm.F:290 :: Using a non-square number of MPI ranks ***
 *** might lead to poor performance. Used ranks: 32 Suggested: 36 64     ***

 -------------------------------------------------------------------------------
 -                                                                             -
 -                      DBCSR MESSAGE PASSING PERFORMANCE                      -
 -                                                                             -
 -------------------------------------------------------------------------------
 ROUTINE             CALLS      AVE VOLUME [Bytes]
 MP_Bcast                6                     12.
 MP_Allreduce          499                      9.
 MP_Alltoall          1885                1275666.
 MP_ISend             2176                 578173.
 MP_IRecv             2176                 561175.
 -------------------------------------------------------------------------------

 -------------------------------------------------------------------------------
 -                                                                             -
 -                                DBM STATISTICS                               -
 -                                                                             -
 -------------------------------------------------------------------------------
    M  x    N  x    K                                          COUNT     PERCENT
 -------------------------------------------------------------------------------

 -------------------------------------------------------------------------------
 -                                                                             -
 -                                GRID STATISTICS                              -
 -                                                                             -
 -------------------------------------------------------------------------------
 LP    KERNEL             BACKEND                              COUNT     PERCENT
 4     collocate general  REF                               22481118      49.97%
 4     integrate general  REF                               22140495      49.21%
 5     integrate general  REF                                 340623       0.76%
 0     collocate general  REF                                  13824       0.03%
 0     integrate general  REF                                   6912       0.02%
 1     integrate general  REF                                   6912       0.02%
 -------------------------------------------------------------------------------

 MEMORY| Estimated peak process memory [MiB]                                2145

 -------------------------------------------------------------------------------
 ----                             MULTIGRID INFO                            ----
 -------------------------------------------------------------------------------
 count for grid        1:          17570          cutoff [a.u.]          200.00
 count for grid        2:         177748          cutoff [a.u.]           66.67
 count for grid        3:         109915          cutoff [a.u.]           22.22
 count for grid        4:         155039          cutoff [a.u.]            7.41
 total gridlevel count  :         460272

 -------------------------------------------------------------------------------
 -                                                                             -
 -                         MESSAGE PASSING PERFORMANCE                         -
 -                                                                             -
 -------------------------------------------------------------------------------

 ROUTINE             CALLS      AVE VOLUME [Bytes]
 MP_Group                4
 MP_Bcast             1774                 164157.
 MP_Allreduce         1654                   1530.
 MP_Sync                71
 MP_Alltoall          3223               49363493.
 MP_SendRecv           124                  14886.
 MP_ISendRecv         8184                 214800.
 MP_Wait             19836
 MP_comm_split           1
 MP_ISend            10448                 714782.
 MP_IRecv            10448                 714782.
 MP_Recv               192                1105920.
 MP_Write_All            3                4213860.
 -------------------------------------------------------------------------------


 -------------------------------------------------------------------------------
 -                                                                             -
 -                           R E F E R E N C E S                               -
 -                                                                             -
 -------------------------------------------------------------------------------
 
 CP2K version 2022.1, the CP2K developers group (2022).
 CP2K is freely available from https://www.cp2k.org/ .

 Kuehne,Thomas D.; Iannuzzi,Marcella; Del Ben,Mauro;
 Rybkin,Vladimir V.; Seewald,Patrick; Stein,Frederick; Laino,Teodoro;
 Khaliullin,Rustam Z.; Schuett,Ole; Schiffmann,Florian; Golze,Dorothea;
 Wilhelm,Jan; Chulkov,Sergey; Bani-Hashemian,Mohammad Hossein;
 Weber,Valery; Borstnik,Urban; Taillefumier,Mathieu;
 Jakobovits,Alice Shoshana; Lazzaro,Alfio; Pabst,Hans; Mueller,Tiziano;
 Schade,Robert; Guidon,Manuel; Andermatt,Samuel; Holmberg,Nico;
 Schenter,Gregory K.; Hehn,Anna; Bussy,Augustin; Belleflamme,Fabian;
 Tabacchi,Gloria; Gloess,Andreas; Lass,Michael; Bethune,Iain;
 Mundy,Christopher J.; Plessl,Christian; Watkins,Matt;
 VandeVondele,Joost; Krack,Matthias; Hutter,Juerg. 
 The Journal of Chemical Physics, 152 (19), (2020). 
 CP2K: An electronic structure and molecular dynamics software package -
 Quickstep: Efficient and accurate electronic structure calculations.
 https://doi.org/10.1063/5.0007045

 Goerigk, Lars; Hansen, Andreas; Bauer, Christoph; Ehrlich, Stephan;
 Najibi, Asim; Grimme, Stefan. , 19 (48), (2017). 
 A look at the density functional theory zoo with the advanced GMTKN55 database
 for general main group thermochemistry, kinetics and noncovalent interactions.
 https://doi.org/10.1039/C7CP04913G

 Bani-Hashemian, MH; Bruck, S; Luisier, M; VandeVondele, J. 
 JOURNAL OF CHEMICAL PHYSICS, 144 (4), 044113 (2016). 
 A generalized Poisson solver for first-principles device simulations.
 https://doi.org/10.1063/1.4940796

 Schuett, Ole; Messmer, Peter; Hutter, Juerg; VandeVondele, Joost. 
 Electronic Structure Calculations on Graphics Processing Units, John
 Wiley & Sons, Ltd, 173-190 (2016). 
 GPU-Accelerated Sparse Matrix-Matrix Multiplication for
 Linear Scaling Density Functional Theory.
 https://doi.org/10.1002/9781118670712.ch8

 Heinecke, A; Henry, G; Hutchinson, M; Pabst, H. 
 Proceedings of Intl. Supercomputing Conference, 981-991 (2016). 
 LIBXSMM: Accelerating Small Matrix Multiplications
 by Runtime Code Generation.
 https://doi.org/10.1109/SC.2016.83

 Borstnik, U; VandeVondele, J; Weber, V; Hutter, J. 
 PARALLEL COMPUTING, 40 (5-6), 47-58 (2014). 
 Sparse matrix multiplication: The distributed block-compressed sparse
 row library.
 https://doi.org/10.1016/j.parco.2014.03.012

 Hutter, J; Iannuzzi, M; Schiffmann, F; VandeVondele, J. 
 WIREs Comput Mol Sci., 4 (1), 15-25 (2014). 
 CP2K: atomistic simulations of condensed matter systems.
 https://doi.org/10.1002/wcms.1159

 Marek, A; Blum, V; Johanni, R; Havu, V; Lang, B; Auckenthaler, T;
 Heinecke, A; Bungartz, H; Lederer, H. 
 Journal of Physics: Condensed Matter, 26 (21), (2014). 
 The ELPA library: scalable parallel eigenvalue solutions for
 electronic structure
 theory and computational science.
 https://doi.org/10.1088/0953-8984/26/21/213201

 Grimme, S; Ehrlich, S; Goerigk, L. 
 JOURNAL OF COMPUTATIONAL CHEMISTRY, 32, 1456 (2011). 
 Effect of the damping function in dispersion corrected density functional theory.
 https://doi.org/10.1002/jcc.21759

 Grimme, S; Antony, J; Ehrlich, S; Krieg, H. 
 JOURNAL OF CHEMICAL PHYSICS, 132 (15), 154104 (2010). 
 A consistent and accurate ab initio parametrization of density
 functional dispersion correction (DFT-D) for the 94 elements H-Pu.
 https://doi.org/10.1063/1.3382344

 VandeVondele, J; Hutter, J. 
 JOURNAL OF CHEMICAL PHYSICS, 127 (11), 114105 (2007). 
 Gaussian basis sets for accurate calculations on molecular systems in
 gas and condensed phases.
 https://doi.org/10.1063/1.2770708

 Krack, M. 
 THEORETICAL CHEMISTRY ACCOUNTS, 114 (1-3), 145-152 (2005). 
 Pseudopotentials for H to Kr optimized for gradient-corrected
 exchange-correlation functionals.
 https://doi.org/10.1007/s00214-005-0655-y

 VandeVondele, J; Krack, M; Mohamed, F; Parrinello, M; Chassaing, T;
 Hutter, J. COMPUTER PHYSICS COMMUNICATIONS, 167 (2), 103-128 (2005). 
 QUICKSTEP: Fast and accurate density functional calculations using a
 mixed Gaussian and plane waves approach.
 https://doi.org/10.1016/j.cpc.2004.12.014

 Frigo, M; Johnson, SG. 
 PROCEEDINGS OF THE IEEE, 93 (2), 216-231 (2005). 
 The design and implementation of FFTW3.
 https://doi.org/10.1109/JPROC.2004.840301

 Hartwigsen, C; Goedecker, S; Hutter, J. 
 PHYSICAL REVIEW B, 58 (7), 3641-3662 (1998). 
 Relativistic separable dual-space Gaussian pseudopotentials from H to Rn.
 https://doi.org/10.1103/PhysRevB.58.3641

 Lippert, G; Hutter, J; Parrinello, M. 
 MOLECULAR PHYSICS, 92 (3), 477-487 (1997). 
 A hybrid Gaussian and plane wave density functional scheme.
 https://doi.org/10.1080/002689797170220

 Perdew, JP; Burke, K; Ernzerhof, M. 
 PHYSICAL REVIEW LETTERS, 77 (18), 3865-3868 (1996). 
 Generalized gradient approximation made simple.
 https://doi.org/10.1103/PhysRevLett.77.3865

 Goedecker, S; Teter, M; Hutter, J. 
 PHYSICAL REVIEW B, 54 (3), 1703-1710 (1996). 
 Separable dual-space Gaussian pseudopotentials.
 https://doi.org/10.1103/PhysRevB.54.1703


 -------------------------------------------------------------------------------
 -                                                                             -
 -                                T I M I N G                                  -
 -                                                                             -
 -------------------------------------------------------------------------------
 SUBROUTINE                       CALLS  ASD         SELF TIME        TOTAL TIME
                                MAXIMUM       AVERAGE  MAXIMUM  AVERAGE  MAXIMUM
 CP2K                                 1  1.0    0.022    0.040  853.720  853.721
 qs_forces                            1  2.0    0.001    0.001  853.225  853.226
 qs_energies                          1  3.0    0.000    0.000  840.302  840.304
 scf_env_do_scf                       1  4.0    0.000    0.000  830.579  830.671
 scf_env_do_scf_inner_loop           65  5.0    0.003    0.005  830.576  830.668
 rebuild_ks_matrix                   66  7.0    0.000    0.000  529.682  529.705
 qs_ks_build_kohn_sham_matrix        66  8.0    0.010    0.012  529.682  529.705
 qs_ks_update_qs_env                 65  6.0    0.001    0.001  521.190  521.213
 pw_transfer                       3076 12.1    0.233    0.297  297.025  300.074
 fft_wrap_pw1pw2                   3076 13.1    0.033    0.038  296.792  299.777
 fft_wrap_pw1pw2_200               2680 14.4   25.161   28.616  293.868  296.583
 pw_poisson_solve                    66  9.0    0.018    0.026  253.904  253.981
 implicit_poisson_solver_mixed_      66 10.0    6.804    7.363  238.766  238.906
 fft3d_ps                          3076 15.1  126.194  137.586  221.276  224.975
 qs_rho_update_rho_low               66  6.0    0.001    0.001  199.666  199.685
 calculate_rho_elec                  66  7.0    0.360    0.386  199.665  199.684
 sum_up_and_integrate                66  9.0    1.028    1.107  188.696  188.734
 integrate_v_rspace                  66 10.0    0.002    0.002  187.667  187.796
 grid_collocate_task_list            66  8.0   88.531  172.702   88.531  172.702
 derive_fft                         324 12.2    0.023    0.028  167.986  169.256
 grid_integrate_task_list            66 11.0   82.020  161.253   82.020  161.253
 rs_pw_transfer                     532 10.5    0.006    0.007  110.360  138.059
 density_rs2pw                       66  8.0    0.005    0.005  109.317  137.434
 apply_P_operator                   258 11.2    2.409    2.748  136.323  137.221
 mp_waitany                       10448 12.4   92.014  119.550   92.014  119.550
 rs_pw_transfer_RS2PW_200            68 10.0    3.760    4.426   90.273  117.971
 mp_alltoall_d11v                   940 10.3   81.285  107.177   81.285  107.177
 rs_gather_matrices                  66 11.0    0.248    0.278   80.053  105.864
 qs_scf_new_mos                      65  6.0    0.001    0.002   81.031   81.123
 qs_vxc_create                       66  9.0    0.002    0.003   78.403   79.301
 xc_vxc_pw_create                    66 10.0    1.729    2.195   78.401   79.299
 eigensolver                         65  7.0    0.006    0.010   73.157   73.258
 x_to_yz                           1927 16.3   41.928   48.233   64.909   68.122
 mp_alltoall_z22v                  3076 17.1   41.288   60.687   41.288   60.687
 xc_pw_derive                       396 12.0    0.007    0.008   53.020   56.096
 apply_poisson_operator_fft          66 11.0    0.001    0.001   50.163   50.424
 cp_fm_diag_elpa                     66  8.0    0.001    0.001   46.383   46.522
 cp_fm_diag_elpa_base                66  9.0   45.388   45.494   46.266   46.334
 xc_rho_set_and_dset_create          66 11.0    0.746    0.909   40.712   42.981
 yz_to_x                           1149 15.8   11.793   12.697   30.101   42.462
 apply_inv_laplace_operator_fft     164 11.6    1.351    1.582   36.311   37.411
 xc_pw_divergence                    66 11.0    0.004    0.004   34.914   36.919
 pw_scatter_p                      1927 15.3   32.637   36.123   32.637   36.123
 ps_implicit_compute_veps            66 11.0    0.794    0.951   34.872   35.633
 gspace_mixing                       64  6.0    0.350    0.377   31.173   31.173
 pw_derive                         1368 13.1   26.187   27.646   26.187   27.646
 cp_fm_triangular_multiply          195  8.0   25.973   26.207   25.973   26.207
 potential_pw2rs                     66 11.0    0.053    0.059   25.583   25.696
 ps_implicit_compute_error_fft       96 11.0    1.780    1.903   23.776   25.375
 broyden_mixing                      64  7.0   22.762   23.168   23.346   23.512
 pw_gather_p                       1149 14.8   17.390   18.107   17.390   18.107
 -------------------------------------------------------------------------------

 The number of warnings for this run is : 1
 
 -------------------------------------------------------------------------------
  **** **** ******  **  PROGRAM ENDED AT                 2023-12-03 04:11:11.286
 ***** ** ***  *** **   PROGRAM RAN ON                                     cu042
 **    ****   ******    PROGRAM RAN BY                                     jxzhu
 ***** **    ** ** **   PROGRAM PROCESS ID                                 22585
  **** **  *******  **  PROGRAM STOPPED IN /public/home/jxzhu/tmp_calc/04c0855f9
                                           8753fac23fde4df51ba20f3741a9e9a/calc/
                                           task.002.000008
