 DBCSR| CPU Multiplication driver                                           XSMM
 DBCSR| Multrec recursion limit                                              512
 DBCSR| Multiplication stack size                                           1000
 DBCSR| Maximum elements for images                                    UNLIMITED
 DBCSR| Multiplicative factor virtual images                                   1
 DBCSR| Use multiplication densification                                       T
 DBCSR| Multiplication size stacks                                             3
 DBCSR| Use memory pool for CPU allocation                                     F
 DBCSR| Number of 3D layers                                               SINGLE
 DBCSR| Use MPI memory allocation                                              F
 DBCSR| Use RMA algorithm                                                      F
 DBCSR| Use Communication thread                                               T
 DBCSR| Communication thread load                                             87
 DBCSR| MPI: My node id                                                        0
 DBCSR| MPI: Number of nodes                                                  64
 DBCSR| OMP: Current number of threads                                         1
 DBCSR| OMP: Max number of threads                                             1
 DBCSR| Split modifier for TAS multiplication algorithm                  1.0E+00


  **** **** ******  **  PROGRAM STARTED AT               2023-11-26 15:51:03.274
 ***** ** ***  *** **   PROGRAM STARTED ON                                 cu054
 **    ****   ******    PROGRAM STARTED BY                                 jxzhu
 ***** **    ** ** **   PROGRAM PROCESS ID                                 28319
  **** **  *******  **  PROGRAM STARTED IN /public/home/jxzhu/tmp_calc/af2075565
                                           805657d94fa4669dad6f4b174b0a4fb/calc/
                                           001900.000/pbc

 CP2K| version string:                                       CP2K version 2022.1
 CP2K| source code revision number:                                  git:2caeb6f
 CP2K| cp2kflags: omp libint fftw3 libxc elpa parallel mpi3 scalapack cosma xsmm
 CP2K|             plumed2 spglib mkl sirius libvori libbqb
 CP2K| is freely available from                            https://www.cp2k.org/
 CP2K| Program compiled at                           Mon Jul 3 17:37:06 CST 2023
 CP2K| Program compiled on                                                 mu003
 CP2K| Program compiled for                                                local
 CP2K| Data directory path                             /public/home/jxzhu/basis/
 CP2K| Input file name                                                 input.inp
 
 GLOBAL| Force Environment number                                              1
 GLOBAL| Basis set file name                                        BASIS_MOLOPT
 GLOBAL| Potential file name                                      GTH_POTENTIALS
 GLOBAL| MM Potential file name                                     MM_POTENTIAL
 GLOBAL| Coordinate file name                                          coord.xyz
 GLOBAL| Method name                                                        CP2K
 GLOBAL| Project name                                                       cp2k
 GLOBAL| Run type                                                   ENERGY_FORCE
 GLOBAL| FFT library                                                       FFTW3
 GLOBAL| Diagonalization library                                            ELPA
 GLOBAL| Minimum number of eigenvectors for ELPA usage                        16
 GLOBAL| Orthonormality check for eigenvectors                          DISABLED
 GLOBAL| Matrix multiplication library                                     COSMA
 GLOBAL| All-to-all communication in single precision                          F
 GLOBAL| FFTs using library dependent lengths                                  F
 GLOBAL| Grid backend                                                       AUTO
 GLOBAL| Global print level                                               MEDIUM
 GLOBAL| MPI I/O enabled                                                       T
 GLOBAL| Total number of message passing processes                            64
 GLOBAL| Number of threads for this process                                    1
 GLOBAL| This output is from process                                           0
 GLOBAL| Stack size for threads created by OpenMP (OMP_STACKSIZE)        default
 GLOBAL| CPU model name                 Intel(R) Xeon(R) Gold 6338 CPU @ 2.00GHz
 GLOBAL| CPUID                                                              1003

 MEMORY| system memory details [Kb]
 MEMORY|                        rank 0           min           max       average
 MEMORY| MemTotal            263619172     263619172     263619172     263619172
 MEMORY| MemFree             213570848     213570848     213577048     213571778
 MEMORY| Buffers                  3320          3320          3320          3320
 MEMORY| Cached                1534800       1534800       1534800       1534800
 MEMORY| Slab                  1464224       1464224       1464224       1464224
 MEMORY| SReclaimable           226888        226888        226888        226888
 MEMORY| MemLikelyFree       215335856     215335856     215342056     215336786


 *** Fundamental physical constants (SI units) ***

 *** Literature: B. J. Mohr and B. N. Taylor,
 ***             CODATA recommended values of the fundamental physical
 ***             constants: 2006, Web Version 5.1
 ***             http://physics.nist.gov/constants

 Speed of light in vacuum [m/s]                             2.99792458000000E+08
 Magnetic constant or permeability of vacuum [N/A**2]       1.25663706143592E-06
 Electric constant or permittivity of vacuum [F/m]          8.85418781762039E-12
 Planck constant (h) [J*s]                                  6.62606896000000E-34
 Planck constant (h-bar) [J*s]                              1.05457162825177E-34
 Elementary charge [C]                                      1.60217648700000E-19
 Electron mass [kg]                                         9.10938215000000E-31
 Electron g factor [ ]                                     -2.00231930436220E+00
 Proton mass [kg]                                           1.67262163700000E-27
 Fine-structure constant                                    7.29735253760000E-03
 Rydberg constant [1/m]                                     1.09737315685270E+07
 Avogadro constant [1/mol]                                  6.02214179000000E+23
 Boltzmann constant [J/K]                                   1.38065040000000E-23
 Atomic mass unit [kg]                                      1.66053878200000E-27
 Bohr radius [m]                                            5.29177208590000E-11

 *** Conversion factors ***

 [u] -> [a.u.]                                              1.82288848426455E+03
 [Angstrom] -> [Bohr] = [a.u.]                              1.88972613288564E+00
 [a.u.] = [Bohr] -> [Angstrom]                              5.29177208590000E-01
 [a.u.] -> [s]                                              2.41888432650478E-17
 [a.u.] -> [fs]                                             2.41888432650478E-02
 [a.u.] -> [J]                                              4.35974393937059E-18
 [a.u.] -> [N]                                              8.23872205491840E-08
 [a.u.] -> [K]                                              3.15774647902944E+05
 [a.u.] -> [kJ/mol]                                         2.62549961709828E+03
 [a.u.] -> [kcal/mol]                                       6.27509468713739E+02
 [a.u.] -> [Pa]                                             2.94210107994716E+13
 [a.u.] -> [bar]                                            2.94210107994716E+08
 [a.u.] -> [atm]                                            2.90362800883016E+08
 [a.u.] -> [eV]                                             2.72113838565563E+01
 [a.u.] -> [Hz]                                             6.57968392072181E+15
 [a.u.] -> [1/cm] (wave numbers)                            2.19474631370540E+05
 [a.u./Bohr**2] -> [1/cm]                                   5.14048714338585E+03
 

 CELL_TOP| Volume [angstrom^3]:                                     10221.806009
 CELL_TOP| Vector a [angstrom    16.869     0.000     0.000   |a| =    16.869000
 CELL_TOP| Vector b [angstrom    -8.434    14.609     0.000   |b| =    16.869015
 CELL_TOP| Vector c [angstrom     0.000     0.000    41.478   |c| =    41.478000
 CELL_TOP| Angle (b,c), alpha [degree]:                                90.000000
 CELL_TOP| Angle (a,c), beta  [degree]:                                90.000000
 CELL_TOP| Angle (a,b), gamma [degree]:                               119.999970
 CELL_TOP| Numerically orthorhombic:                                          NO
 
 GENERATE|  Preliminary Number of Bonds generated:                             0
 GENERATE|  Achieved consistency in connectivity generation.

 CELL| Volume [angstrom^3]:                                         10221.806009
 CELL| Vector a [angstrom]:      16.869     0.000     0.000   |a| =    16.869000
 CELL| Vector b [angstrom]:      -8.434    14.609     0.000   |b| =    16.869015
 CELL| Vector c [angstrom]:       0.000     0.000    41.478   |c| =    41.478000
 CELL| Angle (b,c), alpha [degree]:                                    90.000000
 CELL| Angle (a,c), beta  [degree]:                                    90.000000
 CELL| Angle (a,b), gamma [degree]:                                   119.999970
 CELL| Numerically orthorhombic:                                              NO

 CELL_REF| Volume [angstrom^3]:                                     10221.806009
 CELL_REF| Vector a [angstrom    16.869     0.000     0.000   |a| =    16.869000
 CELL_REF| Vector b [angstrom    -8.434    14.609     0.000   |b| =    16.869015
 CELL_REF| Vector c [angstrom     0.000     0.000    41.478   |c| =    41.478000
 CELL_REF| Angle (b,c), alpha [degree]:                                90.000000
 CELL_REF| Angle (a,c), beta  [degree]:                                90.000000
 CELL_REF| Angle (a,b), gamma [degree]:                               119.999970
 CELL_REF| Numerically orthorhombic:                                          NO

 *******************************************************************************
 *******************************************************************************
 **                                                                           **
 **     #####                         ##              ##                      **
 **    ##   ##            ##          ##              ##                      **
 **   ##     ##                       ##            ######                    **
 **   ##     ##  ##   ##  ##   #####  ##  ##   ####   ##    #####    #####    **
 **   ##     ##  ##   ##  ##  ##      ## ##   ##      ##   ##   ##  ##   ##   **
 **   ##  ## ##  ##   ##  ##  ##      ####     ###    ##   ######   ######    **
 **    ##  ###   ##   ##  ##  ##      ## ##      ##   ##   ##       ##        **
 **     #######   #####   ##   #####  ##  ##  ####    ##    #####   ##        **
 **           ##                                                    ##        **
 **                                                                           **
 **                                                ... make the atoms dance   **
 **                                                                           **
 **            Copyright (C) by CP2K developers group (2000-2022)             **
 **                      J. Chem. Phys. 152, 194103 (2020)                    **
 **                                                                           **
 *******************************************************************************

 DFT| Spin restricted Kohn-Sham (RKS) calculation                            RKS
 DFT| Multiplicity                                                             1
 DFT| Number of spin states                                                    1
 DFT| Charge                                                                   0
 DFT| Self-interaction correction (SIC)                                       NO
 DFT| Cutoffs: density                                              1.000000E-10
 DFT|          gradient                                             1.000000E-10
 DFT|          tau                                                  1.000000E-10
 DFT|          cutoff_smoothing_range                               0.000000E+00
 DFT| XC density smoothing                                                  NONE
 DFT| XC derivatives                                                          PW

 FUNCTIONAL| PBE:
 FUNCTIONAL| J.P.Perdew, K.Burke, M.Ernzerhof, Phys. Rev. Letter, vol. 77, n 18,
 FUNCTIONAL|  pp. 3865-3868, (1996){spin unpolarized}                           

 vdW POTENTIAL|                                                   Pair Potential
 vdW POTENTIAL|          DFT-D3 (Version 3.1)
 vdW POTENTIAL|          Potential Form: S. Grimme et al, JCP 132: 154104 (2010)
 vdW POTENTIAL|          Zero Damping
 vdW POTENTIAL|          Cutoff Radius [Bohr]:                             20.00
 vdW POTENTIAL|          s6 Scaling Factor:                               1.0000
 vdW POTENTIAL|          sr6 Scaling Factor:                              1.2170
 vdW POTENTIAL|          s8 Scaling Factor:                               0.7220
 vdW POTENTIAL|          Cutoff for CN calculation:                   0.1000E-05

 QS| Method:                                                                 GPW
 QS| Density plane wave grid type                        NON-SPHERICAL FULLSPACE
 QS| Number of grid levels:                                                    4
 QS| Density cutoff [a.u.]:                                                200.0
 QS| Multi grid cutoff [a.u.]: 1) grid level                               200.0
 QS|                           2) grid level                                66.7
 QS|                           3) grid level                                22.2
 QS|                           4) grid level                                 7.4
 QS| Grid level progression factor:                                          3.0
 QS| Relative density cutoff [a.u.]:                                        20.0
 QS| Interaction thresholds: eps_pgf_orb:                                3.2E-07
 QS|                         eps_filter_matrix:                          0.0E+00
 QS|                         eps_core_charge:                            1.0E-15
 QS|                         eps_rho_gspace:                             1.0E-13
 QS|                         eps_rho_rspace:                             1.0E-13
 QS|                         eps_gvg_rspace:                             3.2E-07
 QS|                         eps_ppl:                                    1.0E-02
 QS|                         eps_ppnl:                                   3.2E-09


 ATOMIC KIND INFORMATION

  1. Atomic kind: O                                     Number of atoms:     230

     Orbital Basis Set                                        DZVP-MOLOPT-SR-GTH

       Number of orbital shell sets:                                           1
       Number of orbital shells:                                               5
       Number of primitive Cartesian functions:                                5
       Number of Cartesian basis functions:                                   14
       Number of spherical basis functions:                                   13
       Norm type:                                                              2

       Normalised Cartesian orbitals:

                        Set   Shell   Orbital            Exponent    Coefficient

                          1       1    2s               10.389228       0.396646
                                                         3.849621       0.208811
                                                         1.388401      -0.301641
                                                         0.496955      -0.274061
                                                         0.162492      -0.033677

                          1       2    3s               10.389228       0.303673
                                                         3.849621       0.240943
                                                         1.388401      -0.313066
                                                         0.496955      -0.043055
                                                         0.162492       0.213991

                          1       3    3px              10.389228      -1.530415
                                                         3.849621      -1.371928
                                                         1.388401      -0.761951
                                                         0.496955      -0.253695
                                                         0.162492      -0.035541
                          1       3    3py              10.389228      -1.530415
                                                         3.849621      -1.371928
                                                         1.388401      -0.761951
                                                         0.496955      -0.253695
                                                         0.162492      -0.035541
                          1       3    3pz              10.389228      -1.530415
                                                         3.849621      -1.371928
                                                         1.388401      -0.761951
                                                         0.496955      -0.253695
                                                         0.162492      -0.035541

                          1       4    4px              10.389228      -0.565392
                                                         3.849621      -0.038231
                                                         1.388401      -0.382373
                                                         0.496955       0.179070
                                                         0.162492       0.122714
                          1       4    4py              10.389228      -0.565392
                                                         3.849621      -0.038231
                                                         1.388401      -0.382373
                                                         0.496955       0.179070
                                                         0.162492       0.122714
                          1       4    4pz              10.389228      -0.565392
                                                         3.849621      -0.038231
                                                         1.388401      -0.382373
                                                         0.496955       0.179070
                                                         0.162492       0.122714

                          1       5    4dx2             10.389228       1.867377
                                                         3.849621       0.670994
                                                         1.388401       1.353441
                                                         0.496955       0.273538
                                                         0.162492       0.006620
                          1       5    4dxy             10.389228       3.234392
                                                         3.849621       1.162195
                                                         1.388401       2.344229
                                                         0.496955       0.473781
                                                         0.162492       0.011466
                          1       5    4dxz             10.389228       3.234392
                                                         3.849621       1.162195
                                                         1.388401       2.344229
                                                         0.496955       0.473781
                                                         0.162492       0.011466
                          1       5    4dy2             10.389228       1.867377
                                                         3.849621       0.670994
                                                         1.388401       1.353441
                                                         0.496955       0.273538
                                                         0.162492       0.006620
                          1       5    4dyz             10.389228       3.234392
                                                         3.849621       1.162195
                                                         1.388401       2.344229
                                                         0.496955       0.473781
                                                         0.162492       0.011466
                          1       5    4dz2             10.389228       1.867377
                                                         3.849621       0.670994
                                                         1.388401       1.353441
                                                         0.496955       0.273538
                                                         0.162492       0.006620

       Atomic covalent radius [Angstrom]:                                  0.730

       Atomic van der Waals radius [Angstrom]:                             1.520

     GTH Potential information for                                    GTH-PBE-q6

       Description:                       Goedecker-Teter-Hutter pseudopotential
                                           Goedecker et al., PRB 54, 1703 (1996)
                                          Hartwigsen et al., PRB 58, 3641 (1998)
                                                      Krack, TCA 114, 145 (2005)

       Gaussian exponent of the core charge distribution:               8.360253
       Electronic configuration (s p d ...):                               2   4

       Parameters of the local part of the GTH pseudopotential:

                          rloc        C1          C2          C3          C4
                        0.244554  -16.667215    2.487311

       Parameters of the non-local part of the GTH pseudopotential:

                   l      r(l)      h(i,j,l)

                   0    0.220956   18.337458
                   1    0.211332

  2. Atomic kind: H                                     Number of atoms:     460

     Orbital Basis Set                                        DZVP-MOLOPT-SR-GTH

       Number of orbital shell sets:                                           1
       Number of orbital shells:                                               3
       Number of primitive Cartesian functions:                                5
       Number of Cartesian basis functions:                                    5
       Number of spherical basis functions:                                    5
       Norm type:                                                              2

       Normalised Cartesian orbitals:

                        Set   Shell   Orbital            Exponent    Coefficient

                          1       1    2s               10.068468      -0.133023
                                                         2.680223      -0.177618
                                                         0.791502      -0.258419
                                                         0.239116      -0.107525
                                                         0.082193      -0.014019

                          1       2    3s               10.068468       0.344673
                                                         2.680223       1.819821
                                                         0.791502      -0.999069
                                                         0.239116       0.017430
                                                         0.082193       0.082660

                          1       3    3px              10.068468       0.155326
                                                         2.680223       0.367157
                                                         0.791502       0.311480
                                                         0.239116       0.080105
                                                         0.082193       0.033440
                          1       3    3py              10.068468       0.155326
                                                         2.680223       0.367157
                                                         0.791502       0.311480
                                                         0.239116       0.080105
                                                         0.082193       0.033440
                          1       3    3pz              10.068468       0.155326
                                                         2.680223       0.367157
                                                         0.791502       0.311480
                                                         0.239116       0.080105
                                                         0.082193       0.033440

       Atomic covalent radius [Angstrom]:                                  0.320

       Atomic van der Waals radius [Angstrom]:                             1.090

     GTH Potential information for                                    GTH-PBE-q1

       Description:                       Goedecker-Teter-Hutter pseudopotential
                                           Goedecker et al., PRB 54, 1703 (1996)
                                          Hartwigsen et al., PRB 58, 3641 (1998)
                                                      Krack, TCA 114, 145 (2005)

       Gaussian exponent of the core charge distribution:              12.500000
       Electronic configuration (s p d ...):                                   1

       Parameters of the local part of the GTH pseudopotential:

                          rloc        C1          C2          C3          C4
                        0.200000   -4.178900    0.724463

  3. Atomic kind: Pt                                    Number of atoms:     216

     Orbital Basis Set                      DZVP-A5-Q10-323-MOL-T1-DERIVED_SET-1

       Number of orbital shell sets:                                           1
       Number of orbital shells:                                               6
       Number of primitive Cartesian functions:                                5
       Number of Cartesian basis functions:                                   23
       Number of spherical basis functions:                                   20
       Norm type:                                                              2

       Normalised Cartesian orbitals:

                        Set   Shell   Orbital            Exponent    Coefficient

                          1       1    2s                2.521825       0.177473
                                                         1.453920      -0.063399
                                                         0.614053      -0.407089
                                                         0.232656       0.262254
                                                         0.074788       0.047371

                          1       2    3s                2.521825      -0.049056
                                                         1.453920       0.044904
                                                         0.614053      -0.009756
                                                         0.232656      -0.144709
                                                         0.074788       0.144085

                          1       3    3px               2.521825      -0.317572
                                                         1.453920       0.534826
                                                         0.614053      -0.489458
                                                         0.232656       0.245631
                                                         0.074788       0.018221
                          1       3    3py               2.521825      -0.317572
                                                         1.453920       0.534826
                                                         0.614053      -0.489458
                                                         0.232656       0.245631
                                                         0.074788       0.018221
                          1       3    3pz               2.521825      -0.317572
                                                         1.453920       0.534826
                                                         0.614053      -0.489458
                                                         0.232656       0.245631
                                                         0.074788       0.018221

                          1       4    4dx2              2.521825       3.008522
                                                         1.453920      -1.224251
                                                         0.614053       0.225691
                                                         0.232656       0.125144
                                                         0.074788      -0.015348
                          1       4    4dxy              2.521825       5.210912
                                                         1.453920      -2.120465
                                                         0.614053       0.390909
                                                         0.232656       0.216756
                                                         0.074788      -0.026584
                          1       4    4dxz              2.521825       5.210912
                                                         1.453920      -2.120465
                                                         0.614053       0.390909
                                                         0.232656       0.216756
                                                         0.074788      -0.026584
                          1       4    4dy2              2.521825       3.008522
                                                         1.453920      -1.224251
                                                         0.614053       0.225691
                                                         0.232656       0.125144
                                                         0.074788      -0.015348
                          1       4    4dyz              2.521825       5.210912
                                                         1.453920      -2.120465
                                                         0.614053       0.390909
                                                         0.232656       0.216756
                                                         0.074788      -0.026584
                          1       4    4dz2              2.521825       3.008522
                                                         1.453920      -1.224251
                                                         0.614053       0.225691
                                                         0.232656       0.125144
                                                         0.074788      -0.015348

                          1       5    5dx2              2.521825       0.698026
                                                         1.453920      -1.511486
                                                         0.614053      -0.335394
                                                         0.232656      -0.025564
                                                         0.074788      -0.002699
                          1       5    5dxy              2.521825       1.209017
                                                         1.453920      -2.617970
                                                         0.614053      -0.580920
                                                         0.232656      -0.044277
                                                         0.074788      -0.004674
                          1       5    5dxz              2.521825       1.209017
                                                         1.453920      -2.617970
                                                         0.614053      -0.580920
                                                         0.232656      -0.044277
                                                         0.074788      -0.004674
                          1       5    5dy2              2.521825       0.698026
                                                         1.453920      -1.511486
                                                         0.614053      -0.335394
                                                         0.232656      -0.025564
                                                         0.074788      -0.002699
                          1       5    5dyz              2.521825       1.209017
                                                         1.453920      -2.617970
                                                         0.614053      -0.580920
                                                         0.232656      -0.044277
                                                         0.074788      -0.004674
                          1       5    5dz2              2.521825       0.698026
                                                         1.453920      -1.511486
                                                         0.614053      -0.335394
                                                         0.232656      -0.025564
                                                         0.074788      -0.002699

                          1       6    6dx2              2.521825       0.831079
                                                         1.453920      -0.709226
                                                         0.614053      -0.137351
                                                         0.232656       0.068642
                                                         0.074788       0.011745
                          1       6    6dxy              2.521825       1.439472
                                                         1.453920      -1.228415
                                                         0.614053      -0.237899
                                                         0.232656       0.118891
                                                         0.074788       0.020343
                          1       6    6dxz              2.521825       1.439472
                                                         1.453920      -1.228415
                                                         0.614053      -0.237899
                                                         0.232656       0.118891
                                                         0.074788       0.020343
                          1       6    6dy2              2.521825       0.831079
                                                         1.453920      -0.709226
                                                         0.614053      -0.137351
                                                         0.232656       0.068642
                                                         0.074788       0.011745
                          1       6    6dyz              2.521825       1.439472
                                                         1.453920      -1.228415
                                                         0.614053      -0.237899
                                                         0.232656       0.118891
                                                         0.074788       0.020343
                          1       6    6dz2              2.521825       0.831079
                                                         1.453920      -0.709226
                                                         0.614053      -0.137351
                                                         0.232656       0.068642
                                                         0.074788       0.011745

       Atomic covalent radius [Angstrom]:                                  1.300

       Atomic van der Waals radius [Angstrom]:                             1.750

     GTH Potential information for                                   GTH-PBE-q10

       Description:                       Goedecker-Teter-Hutter pseudopotential
                                           Goedecker et al., PRB 54, 1703 (1996)
                                          Hartwigsen et al., PRB 58, 3641 (1998)
                                                      Krack, TCA 114, 145 (2005)

       Gaussian exponent of the core charge distribution:               1.317676
       Electronic configuration (s p d ...):                           1   0   9

       Parameters of the local part of the GTH pseudopotential:

                          rloc        C1          C2          C3          C4
                        0.616000   11.313635

       Parameters of the non-local part of the GTH pseudopotential:

                   l      r(l)      h(i,j,l)

                   0    0.550904    4.733491   -1.784594
                                   -1.784594    2.303901
                   1    0.674138    2.534798   -1.778066
                                   -1.778066    2.103836
                   2    0.457392   -7.264011    2.558665
                                    2.558665   -2.901253


 MOLECULE KIND INFORMATION


 All atoms are their own molecule, skipping detailed information


 TOTAL NUMBERS AND MAXIMUM NUMBERS

  Total number of            - Atomic kinds:                                   3
                             - Atoms:                                        906
                             - Shell sets:                                   906
                             - Shells:                                      3826
                             - Primitive Cartesian functions:               4530
                             - Cartesian basis functions:                  10488
                             - Spherical basis functions:                   9610

  Maximum angular momentum of- Orbital basis functions:                        2
                             - Local part of the GTH pseudopotential:          2
                             - Non-local part of the GTH pseudopotential:      4


 MODULE QUICKSTEP:  ATOMIC COORDINATES IN angstrom

 Atom  Kind  Element       X           Y           Z          Z(eff)       Mass
    1   1 O    8       0.630000  -11.090001    8.800000       6.0000     15.9994
    2   2 H    1       0.600000  -11.260000    7.780001       1.0000      1.0079
    3   2 H    1      -0.160000  -11.670000    9.130000       1.0000      1.0079
    4   1 O    8       8.950001    9.690001   12.220000       6.0000     15.9994
    5   2 H    1       8.370000    9.100000   11.680001       1.0000      1.0079
    6   2 H    1       8.580000    9.440001   13.150001       1.0000      1.0079
    7   1 O    8      -5.960000  -26.900002   16.890001       6.0000     15.9994
    8   2 H    1      -5.850000  -27.580002   17.680000       1.0000      1.0079
    9   2 H    1      -6.780000  -27.150002   16.390001       1.0000      1.0079
   10   1 O    8      12.820001    6.990001   12.130001       6.0000     15.9994
   11   2 H    1      12.180000    7.770000   12.290001       1.0000      1.0079
   12   2 H    1      12.260000    6.300001   12.610001       1.0000      1.0079
   13   1 O    8      13.640001  -17.860001   20.550001       6.0000     15.9994
   14   2 H    1      12.910000  -18.530001   20.770000       1.0000      1.0079
   15   2 H    1      14.180001  -18.440001   19.950001       1.0000      1.0079
   16   1 O    8       9.760000   27.520000   21.820002       6.0000     15.9994
   17   2 H    1      10.350000   26.780003   21.510000       1.0000      1.0079
   18   2 H    1       8.890000   27.170002   21.750002       1.0000      1.0079
   19   1 O    8     -15.510001   13.410001   24.440001       6.0000     15.9994
   20   2 H    1     -16.400002   13.310001   24.820002       1.0000      1.0079
   21   2 H    1     -15.460001   13.210001   23.520000       1.0000      1.0079
   22   1 O    8       4.420000   31.250002    8.300000       6.0000     15.9994
   23   2 H    1       5.160000   30.710001    8.500000       1.0000      1.0079
   24   2 H    1      12.080001   16.020000    8.640000       1.0000      1.0079
   25   1 O    8     -25.420000  -17.530001   17.670000       6.0000     15.9994
   26   2 H    1     -25.910000  -18.340000   17.390001       1.0000      1.0079
   27   2 H    1     -25.890003  -16.740000   17.470001       1.0000      1.0079
   28   1 O    8      26.790001   17.140001   19.760000       6.0000     15.9994
   29   2 H    1      26.400002   18.000000   19.950001       1.0000      1.0079
   30   2 H    1      27.630003   17.280001   20.250000       1.0000      1.0079
   31   1 O    8      17.110001   -6.140000   21.709999       6.0000     15.9994
   32   2 H    1      16.960001   -6.980000   22.240002       1.0000      1.0079
   33   2 H    1      16.830002   -6.430000   20.840000       1.0000      1.0079
   34   1 O    8      -2.580000  -27.110003   18.940001       6.0000     15.9994
   35   2 H    1      -3.260000  -26.470001   19.139999       1.0000      1.0079
   36   2 H    1      -2.180000  -27.000000   18.030001       1.0000      1.0079
   37   1 O    8     -16.680000  -11.430000   24.810001       6.0000     15.9994
   38   2 H    1     -16.610001  -11.960001   23.970001       1.0000      1.0079
   39   2 H    1     -16.600000  -10.490000   24.400002       1.0000      1.0079
   40   1 O    8      24.360001   18.480000   12.320002       6.0000     15.9994
   41   2 H    1      24.840002   19.290001   12.740001       1.0000      1.0079
   42   2 H    1      23.660002   18.090002   12.880001       1.0000      1.0079
   43   1 O    8       2.100000  -20.290001   29.570004       6.0000     15.9994
   44   2 H    1       1.550000  -19.970001   30.270002       1.0000      1.0079
   45   2 H    1       2.620000  -19.490002   29.270000       1.0000      1.0079
   46   1 O    8       0.600000   23.020000   32.070004       6.0000     15.9994
   47   2 H    1       0.070000   22.270000   32.310001       1.0000      1.0079
   48   2 H    1       1.510000   22.920000   32.500004       1.0000      1.0079
   49   1 O    8      -8.120001   20.580002   23.000002       6.0000     15.9994
   50   2 H    1      -7.280001   20.980000   23.240002       1.0000      1.0079
   51   2 H    1      -8.830000   21.260002   23.070002       1.0000      1.0079
   52   1 O    8      -3.710000    4.560000   15.520000       6.0000     15.9994
   53   2 H    1      -3.980000    3.760000   16.010000       1.0000      1.0079
   54   2 H    1      -4.440001    4.730000   14.840001       1.0000      1.0079
   55   1 O    8       6.450000  -15.490000   17.900002       6.0000     15.9994
   56   2 H    1       6.130000  -15.790001   18.770000       1.0000      1.0079
   57   2 H    1       5.780000  -15.830001   17.290001       1.0000      1.0079
   58   1 O    8      26.940002   -6.970000   19.830000       6.0000     15.9994
   59   2 H    1      26.590002   -7.870001   19.920002       1.0000      1.0079
   60   2 H    1      26.300001   -6.270000   20.330000       1.0000      1.0079
   61   1 O    8     -20.050001   38.260002   32.070004       6.0000     15.9994
   62   2 H    1     -19.780001   38.170002   31.110001       1.0000      1.0079
   63   2 H    1      -2.960000   39.120003   32.459999       1.0000      1.0079
   64   1 O    8      34.180000  -23.020000    9.060000       6.0000     15.9994
   65   2 H    1      33.720001  -23.870001    9.110001       1.0000      1.0079
   66   2 H    1      51.200005  -22.860001    8.070001       1.0000      1.0079
   67   1 O    8      -2.630000    8.230000   20.230000       6.0000     15.9994
   68   2 H    1     -10.760001   21.970001   19.870001       1.0000      1.0079
   69   2 H    1      -3.170000    7.970000   21.049999       1.0000      1.0079
   70   1 O    8       3.340000   26.280001   28.100002       6.0000     15.9994
   71   2 H    1       3.740000   25.670002   27.400002       1.0000      1.0079
   72   2 H    1       2.890000   25.650002   28.720001       1.0000      1.0079
   73   1 O    8     -24.700001    0.750000   29.750002       6.0000     15.9994
   74   2 H    1     -24.320002   -0.150000   29.580002       1.0000      1.0079
   75   2 H    1     -25.750000    0.700000   29.640003       1.0000      1.0079
   76   1 O    8     -10.220001    2.970000   31.360001       6.0000     15.9994
   77   2 H    1      -9.960001    2.050000   31.140001       1.0000      1.0079
   78   2 H    1     -10.210000    3.470000   30.560001       1.0000      1.0079
   79   1 O    8      -2.180000  -43.260002   16.020000       6.0000     15.9994
   80   2 H    1      -2.730000  -42.860001   15.310000       1.0000      1.0079
   81   2 H    1      -2.190000  -44.230003   15.740002       1.0000      1.0079
   82   1 O    8      14.100000   -9.840000    8.180000       6.0000     15.9994
   83   2 H    1      14.050001  -10.800000    8.520000       1.0000      1.0079
   84   2 H    1      14.910001   -9.470000    8.560000       1.0000      1.0079
   85   1 O    8      -8.260000   14.280001    8.000000       6.0000     15.9994
   86   2 H    1      -9.030001   14.960001    8.340000       1.0000      1.0079
   87   2 H    1      -8.550000   13.350000    8.270000       1.0000      1.0079
   88   1 O    8      14.820002    0.400000   20.840000       6.0000     15.9994
   89   2 H    1      -2.680000    0.810000   21.500000       1.0000      1.0079
   90   2 H    1      14.870001    1.090000   20.080002       1.0000      1.0079
   91   1 O    8      -4.350000   -3.280000    9.020000       6.0000     15.9994
   92   2 H    1      -4.090000   -2.770000    8.230000       1.0000      1.0079
   93   2 H    1      -4.200000   -2.650000    9.750000       1.0000      1.0079
   94   1 O    8      23.330002   29.780003   29.690001       6.0000     15.9994
   95   2 H    1      22.880001   28.890001   29.790001       1.0000      1.0079
   96   2 H    1      22.880001   30.190001   28.820002       1.0000      1.0079
   97   1 O    8     -22.270000  -11.960001   11.180000       6.0000     15.9994
   98   2 H    1     -22.900002  -12.250000   11.940001       1.0000      1.0079
   99   2 H    1     -22.660000  -12.040001   10.310000       1.0000      1.0079
  100   1 O    8       4.710000   -3.700000   11.600000       6.0000     15.9994
  101   2 H    1       3.940000   -4.260000   11.970000       1.0000      1.0079
  102   2 H    1       4.460000   -3.270000   10.740000       1.0000      1.0079
  103   1 O    8      28.110001    3.030000   11.870001       6.0000     15.9994
  104   2 H    1      28.260002    3.060000   10.940001       1.0000      1.0079
  105   2 H    1      10.810001    2.150000   11.900001       1.0000      1.0079
  106   1 O    8       0.180000    9.710001    8.000000       6.0000     15.9994
  107   2 H    1      -0.720000    9.360001    8.500000       1.0000      1.0079
  108   2 H    1       1.030000    9.440001    8.340000       1.0000      1.0079
  109   1 O    8      23.740002   15.730000    9.100000       6.0000     15.9994
  110   2 H    1      23.690002   15.220001    9.990001       1.0000      1.0079
  111   2 H    1      22.889999   15.580001    8.640000       1.0000      1.0079
  112   1 O    8     -21.260002    8.970000   17.930000       6.0000     15.9994
  113   2 H    1     -20.610001    9.610001   17.580002       1.0000      1.0079
  114   2 H    1     -21.020000    8.900001   18.870001       1.0000      1.0079
  115   1 O    8      14.330001   23.760002    9.200000       6.0000     15.9994
  116   2 H    1      14.130001   24.710003    9.240000       1.0000      1.0079
  117   2 H    1      14.780001   23.630001    8.360001       1.0000      1.0079
  118   1 O    8     -23.030003   16.820000   28.970001       6.0000     15.9994
  119   2 H    1     -23.360003   17.780001   28.930000       1.0000      1.0079
  120   2 H    1     -23.360003   16.590000   28.070002       1.0000      1.0079
  121   1 O    8      16.720001   -0.390000   22.450001       6.0000     15.9994
  122   2 H    1      15.980000    0.090000   22.010002       1.0000      1.0079
  123   2 H    1      16.130001   -0.880000   23.100002       1.0000      1.0079
  124   1 O    8     -22.770002   11.250000   32.420002       6.0000     15.9994
  125   2 H    1     -31.460001   26.810001   32.370003       1.0000      1.0079
  126   2 H    1     -23.040001   10.960001   33.310001       1.0000      1.0079
  127   1 O    8       0.460000    0.100000   16.760002       6.0000     15.9994
  128   2 H    1       0.080000   -0.320000   17.550001       1.0000      1.0079
  129   2 H    1      -7.300000   15.440001   16.930000       1.0000      1.0079
  130   1 O    8      -5.760000    3.780000   26.110001       6.0000     15.9994
  131   2 H    1      -5.680000    3.110000   26.780003       1.0000      1.0079
  132   2 H    1      -6.600000    3.460000   25.660002       1.0000      1.0079
  133   1 O    8       6.250000   23.610001    8.950001       6.0000     15.9994
  134   2 H    1       5.650000   22.790001    8.880001       1.0000      1.0079
  135   2 H    1       6.480000   23.780001    9.910001       1.0000      1.0079
  136   1 O    8     -23.490002   15.390000   24.020002       6.0000     15.9994
  137   2 H    1     -22.740002   14.780001   24.060001       1.0000      1.0079
  138   2 H    1     -24.150002   14.850000   23.430002       1.0000      1.0079
  139   1 O    8      -3.140000   11.630001   32.700001       6.0000     15.9994
  140   2 H    1      -4.150000   11.650001   32.830002       1.0000      1.0079
  141   2 H    1      -2.840000   11.510000   33.700001       1.0000      1.0079
  142   1 O    8       6.060000    9.370001   17.920000       6.0000     15.9994
  143   2 H    1       6.590000    8.770000   18.460001       1.0000      1.0079
  144   2 H    1       6.060000    8.950001   17.000000       1.0000      1.0079
  145   1 O    8     -19.980001   34.060001    8.210000       6.0000     15.9994
  146   2 H    1      -3.480000   34.959999    8.380001       1.0000      1.0079
  147   2 H    1     -19.180000   34.040001    8.760000       1.0000      1.0079
  148   1 O    8     -26.660002   18.720001   24.930000       6.0000     15.9994
  149   2 H    1     -26.360001   18.020000   25.540001       1.0000      1.0079
  150   2 H    1     -25.910000   18.950001   24.310001       1.0000      1.0079
  151   1 O    8      -8.430000    5.810000   23.670002       6.0000     15.9994
  152   2 H    1      -8.090000    5.590000   22.710001       1.0000      1.0079
  153   2 H    1      -9.420000    5.770000   23.600002       1.0000      1.0079
  154   1 O    8     -31.470001  -18.420002   24.750002       6.0000     15.9994
  155   2 H    1     -31.680002  -18.840000   25.590000       1.0000      1.0079
  156   2 H    1     -31.690002  -17.450001   24.690001       1.0000      1.0079
  157   1 O    8      10.130000   -6.460000   11.510000       6.0000     15.9994
  158   2 H    1      10.610001   -6.110000   10.700001       1.0000      1.0079
  159   2 H    1       9.420000   -7.030000   11.210001       1.0000      1.0079
  160   1 O    8      -3.690000   -1.570000   10.910001       6.0000     15.9994
  161   2 H    1      -4.280000   -1.840000   11.780001       1.0000      1.0079
  162   2 H    1      -4.080000   -0.830000   10.490000       1.0000      1.0079
  163   1 O    8      46.000004   -4.270000   28.420002       6.0000     15.9994
  164   2 H    1      46.150002   -3.260000   28.360003       1.0000      1.0079
  165   2 H    1      46.750000   -4.670000   29.020002       1.0000      1.0079
  166   1 O    8       2.070000   -0.490000   11.270000       6.0000     15.9994
  167   2 H    1       1.550000    0.240000   11.580001       1.0000      1.0079
  168   2 H    1       1.310000   -1.180000   11.350001       1.0000      1.0079
  169   1 O    8     -41.700001    4.990000   27.650002       6.0000     15.9994
  170   2 H    1     -24.620001    4.590000   26.760002       1.0000      1.0079
  171   2 H    1     -25.080002    5.980001   27.640001       1.0000      1.0079
  172   1 O    8      -1.340000  -11.900001   10.210000       6.0000     15.9994
  173   2 H    1      -1.580000  -11.090001   10.720000       1.0000      1.0079
  174   2 H    1      -2.040000  -12.510000   10.510000       1.0000      1.0079
  175   1 O    8      13.800001   -7.390000   20.760002       6.0000     15.9994
  176   2 H    1      13.100000   -7.990000   20.350000       1.0000      1.0079
  177   2 H    1      14.070001   -7.850000   21.580000       1.0000      1.0079
  178   1 O    8      -7.910000   26.660002   31.970003       6.0000     15.9994
  179   2 H    1      -8.680000   27.240002   32.140003       1.0000      1.0079
  180   2 H    1      -7.680000   26.860001   31.060001       1.0000      1.0079
  181   1 O    8      16.720001   10.060000   23.560001       6.0000     15.9994
  182   2 H    1      16.190001    9.330000   23.890001       1.0000      1.0079
  183   2 H    1      17.590000   10.060000   23.960001       1.0000      1.0079
  184   1 O    8      14.100000   -8.380001   23.280001       6.0000     15.9994
  185   2 H    1      13.420000   -9.110001   23.310001       1.0000      1.0079
  186   2 H    1      14.060000   -7.890000   24.130001       1.0000      1.0079
  187   1 O    8     -19.550001   42.299999   13.010001       6.0000     15.9994
  188   2 H    1     -20.320000   42.900005   13.280001       1.0000      1.0079
  189   2 H    1     -20.010002   41.560001   12.500000       1.0000      1.0079
  190   1 O    8       7.420001   20.350000   28.590002       6.0000     15.9994
  191   2 H    1       6.640000   19.830000   28.920002       1.0000      1.0079
  192   2 H    1       7.130001   20.740002   27.750000       1.0000      1.0079
  193   1 O    8      12.750001    6.280000   17.680000       6.0000     15.9994
  194   2 H    1      13.080001    7.210000   17.480000       1.0000      1.0079
  195   2 H    1      12.980001    5.670000   16.860001       1.0000      1.0079
  196   1 O    8     -35.240002    0.090000   11.420001       6.0000     15.9994
  197   2 H    1     -35.820004   -0.720000   11.230000       1.0000      1.0079
  198   2 H    1     -35.870003    0.730000   11.900001       1.0000      1.0079
  199   1 O    8     -18.270000   21.310001   32.400002       6.0000     15.9994
  200   2 H    1     -17.640001   20.510002   32.400002       1.0000      1.0079
  201   2 H    1     -18.720001   21.230001   33.300003       1.0000      1.0079
  202   1 O    8      11.310000   14.480001    8.830000       6.0000     15.9994
  203   2 H    1      10.640000   14.540001    8.120001       1.0000      1.0079
  204   2 H    1      10.820000   14.470000    9.660000       1.0000      1.0079
  205   1 O    8      19.030001  -10.150002   18.570002       6.0000     15.9994
  206   2 H    1      11.160001    5.130000   18.170000       1.0000      1.0079
  207   2 H    1      19.090000  -10.990001   18.080002       1.0000      1.0079
  208   1 O    8      -4.050000   -9.320001   19.100000       6.0000     15.9994
  209   2 H    1      -3.760000  -10.220001   19.400002       1.0000      1.0079
  210   2 H    1      -4.880000   -9.480001   18.660000       1.0000      1.0079
  211   1 O    8      -3.000000  -16.720001   29.700001       6.0000     15.9994
  212   2 H    1      -3.830000  -16.960001   29.160002       1.0000      1.0079
  213   2 H    1      -3.260000  -16.980001   30.610001       1.0000      1.0079
  214   1 O    8      15.380001    7.740001   23.770000       6.0000     15.9994
  215   2 H    1      15.260000    7.130001   24.620001       1.0000      1.0079
  216   2 H    1      14.440001    7.590001   23.350000       1.0000      1.0079
  217   1 O    8     -34.510002   -0.750000   14.140000       6.0000     15.9994
  218   2 H    1     -34.040001   -0.420000   14.930000       1.0000      1.0079
  219   2 H    1     -34.580002    0.060000   13.580000       1.0000      1.0079
  220   1 O    8      29.540003   14.130001   22.180002       6.0000     15.9994
  221   2 H    1      30.010002   13.430000   21.570000       1.0000      1.0079
  222   2 H    1      30.280001   14.500000   22.720001       1.0000      1.0079
  223   1 O    8      11.180000    5.190001   13.450001       6.0000     15.9994
  224   2 H    1      27.100000    5.420001   13.560000       1.0000      1.0079
  225   2 H    1      11.130000    4.340000   12.960000       1.0000      1.0079
  226   1 O    8       6.590000   37.440002   11.670000       6.0000     15.9994
  227   2 H    1       6.300001   37.610001   10.690001       1.0000      1.0079
  228   2 H    1      22.730000   37.890003   12.230001       1.0000      1.0079
  229   1 O    8     -13.750001   22.590000   33.049999       6.0000     15.9994
  230   2 H    1     -13.470001   21.610001   32.860001       1.0000      1.0079
  231   2 H    1     -12.950001   23.110001   32.650002       1.0000      1.0079
  232   1 O    8      -0.890000    0.270000   32.540001       6.0000     15.9994
  233   2 H    1      -0.410000    0.420000   33.440002       1.0000      1.0079
  234   2 H    1      -0.420000    0.500000   31.680002       1.0000      1.0079
  235   1 O    8       1.040000   31.220001   26.370001       6.0000     15.9994
  236   2 H    1       1.290000   30.730001   25.580002       1.0000      1.0079
  237   2 H    1       0.040000   31.210001   26.490002       1.0000      1.0079
  238   1 O    8      -1.590000    2.060000   26.720001       6.0000     15.9994
  239   2 H    1      -9.950001   16.390001   27.640001       1.0000      1.0079
  240   2 H    1      -1.920000    1.280000   26.180000       1.0000      1.0079
  241   1 O    8      23.420000   -5.470000   27.090000       6.0000     15.9994
  242   2 H    1      23.160002   -5.890000   27.900002       1.0000      1.0079
  243   2 H    1      24.290001   -5.910000   26.760002       1.0000      1.0079
  244   1 O    8       2.580000   -6.470000   24.460001       6.0000     15.9994
  245   2 H    1       3.190000   -5.630000   24.760000       1.0000      1.0079
  246   2 H    1       2.760000   -7.060000   25.230000       1.0000      1.0079
  247   1 O    8      18.060001    5.830000   32.250000       6.0000     15.9994
  248   2 H    1      18.360001    5.490000   33.139999       1.0000      1.0079
  249   2 H    1      17.230000    6.340000   32.540001       1.0000      1.0079
  250   1 O    8      23.910000   -2.490000   22.540001       6.0000     15.9994
  251   2 H    1      24.490002   -3.220000   22.910002       1.0000      1.0079
  252   2 H    1      23.340000   -2.860000   21.830002       1.0000      1.0079
  253   1 O    8       0.110000    6.110000   13.680000       6.0000     15.9994
  254   2 H    1       1.110000    6.030001   13.670001       1.0000      1.0079
  255   2 H    1      -0.020000    5.730000   14.620000       1.0000      1.0079
  256   1 O    8       7.340000  -10.700001    9.730001       6.0000     15.9994
  257   2 H    1       7.330000  -10.640000   10.700001       1.0000      1.0079
  258   2 H    1       6.870000  -11.470001    9.380000       1.0000      1.0079
  259   1 O    8      -5.970000   29.740002   21.200001       6.0000     15.9994
  260   2 H    1      -5.290000   29.750002   21.940001       1.0000      1.0079
  261   2 H    1      -6.470000   28.860001   21.200001       1.0000      1.0079
  262   1 O    8       6.020000   -9.290000   20.030001       6.0000     15.9994
  263   2 H    1       5.320000   -9.580001   20.630001       1.0000      1.0079
  264   2 H    1       5.530000   -9.060000   19.190002       1.0000      1.0079
  265   1 O    8      20.090000  -11.610001    9.340000       6.0000     15.9994
  266   2 H    1      19.050001  -11.510000    9.160001       1.0000      1.0079
  267   2 H    1      29.030001    3.510000    8.680000       1.0000      1.0079
  268   1 O    8       1.350000  -16.700001   29.290001       6.0000     15.9994
  269   2 H    1       2.180000  -16.430000   28.810001       1.0000      1.0079
  270   2 H    1       0.710000  -17.110001   28.680000       1.0000      1.0079
  271   1 O    8       7.510000    2.080000   19.190002       6.0000     15.9994
  272   2 H    1       8.020000    2.100000   20.000000       1.0000      1.0079
  273   2 H    1       6.590000    2.260000   19.570002       1.0000      1.0079
  274   1 O    8      -9.360001   -7.300000   17.780001       6.0000     15.9994
  275   2 H    1      -9.320001   -6.670001   17.090000       1.0000      1.0079
  276   2 H    1      -8.540000   -7.150001   18.270000       1.0000      1.0079
  277   1 O    8      15.100001    7.990000   13.090000       6.0000     15.9994
  278   2 H    1      -1.250000    7.250000   13.460001       1.0000      1.0079
  279   2 H    1      14.200001    7.600000   12.890000       1.0000      1.0079
  280   1 O    8      28.549999   -2.940000   32.430004       6.0000     15.9994
  281   2 H    1      28.570002   -2.950000   33.410000       1.0000      1.0079
  282   2 H    1      27.590000   -2.930000   32.430004       1.0000      1.0079
  283   1 O    8      13.410001  -12.060001   19.650002       6.0000     15.9994
  284   2 H    1       4.570000    2.240000   20.510002       1.0000      1.0079
  285   2 H    1      13.340001  -12.870001   19.090000       1.0000      1.0079
  286   1 O    8     -30.910000   24.960001   21.049999       6.0000     15.9994
  287   2 H    1     -14.580001   24.260002   21.480000       1.0000      1.0079
  288   2 H    1     -31.540001   25.680000   20.740002       1.0000      1.0079
  289   1 O    8      -6.980000   13.570002   27.610001       6.0000     15.9994
  290   2 H    1      -7.550001   13.860001   26.860001       1.0000      1.0079
  291   2 H    1      -6.410000   12.770000   27.520000       1.0000      1.0079
  292   1 O    8      19.950001   -7.160000   29.090002       6.0000     15.9994
  293   2 H    1      19.330002   -6.420000   29.410002       1.0000      1.0079
  294   2 H    1      19.850002   -7.990000   29.560001       1.0000      1.0079
  295   1 O    8      12.500000   17.889999   32.320000       6.0000     15.9994
  296   2 H    1      12.780001   17.030001   32.780003       1.0000      1.0079
  297   2 H    1      13.160001   17.880001   31.560001       1.0000      1.0079
  298   1 O    8       6.790000   12.670001   27.820000       6.0000     15.9994
  299   2 H    1       7.060000   12.710000   26.950001       1.0000      1.0079
  300   2 H    1       5.770000   12.750001   27.960003       1.0000      1.0079
  301   1 O    8     -26.030003   11.940001    8.990001       6.0000     15.9994
  302   2 H    1     -25.470001   11.130000    8.690001       1.0000      1.0079
  303   2 H    1     -25.870001   12.080001    9.940001       1.0000      1.0079
  304   1 O    8     -10.530001   10.450001   21.800001       6.0000     15.9994
  305   2 H    1      -9.710001    9.990001   21.809999       1.0000      1.0079
  306   2 H    1     -11.140001    9.740001   22.100000       1.0000      1.0079
  307   1 O    8     -21.180000   11.960001    9.040001       6.0000     15.9994
  308   2 H    1     -21.840000   12.670001    8.860001       1.0000      1.0079
  309   2 H    1     -20.950001   11.550001    8.160001       1.0000      1.0079
  310   1 O    8     -21.910002   16.970001   21.900002       6.0000     15.9994
  311   2 H    1     -21.740000   17.540001   22.730000       1.0000      1.0079
  312   2 H    1     -22.240002   16.150002   22.330000       1.0000      1.0079
  313   1 O    8       1.980000    4.290000   25.540001       6.0000     15.9994
  314   2 H    1       1.530000    3.510000   25.940001       1.0000      1.0079
  315   2 H    1       1.380000    5.060000   25.720001       1.0000      1.0079
  316   1 O    8       5.930000  -12.150001   33.250000       6.0000     15.9994
  317   2 H    1       6.750000  -11.770000   32.800003       1.0000      1.0079
  318   2 H    1       5.910000  -13.080001   33.080002       1.0000      1.0079
  319   1 O    8       2.550000   -1.700000   16.210001       6.0000     15.9994
  320   2 H    1       3.050000   -1.850000   17.030001       1.0000      1.0079
  321   2 H    1       1.640000   -1.290000   16.360001       1.0000      1.0079
  322   1 O    8      29.820002    1.250000   15.400001       6.0000     15.9994
  323   2 H    1      29.950001    0.320000   15.740002       1.0000      1.0079
  324   2 H    1      29.110003    1.610000   15.900001       1.0000      1.0079
  325   1 O    8      -5.270000   23.650000   18.370001       6.0000     15.9994
  326   2 H    1      -4.320000   23.700001   18.620001       1.0000      1.0079
  327   2 H    1      -5.700001   22.930002   18.860001       1.0000      1.0079
  328   1 O    8       4.940000    9.470000   13.390001       6.0000     15.9994
  329   2 H    1       4.010000    9.750000   13.200001       1.0000      1.0079
  330   2 H    1       5.530000   10.270000   13.570002       1.0000      1.0079
  331   1 O    8     -22.180002   40.970001   23.510000       6.0000     15.9994
  332   2 H    1     -21.660002   41.800003   23.290001       1.0000      1.0079
  333   2 H    1     -22.160000   40.450001   22.690001       1.0000      1.0079
  334   1 O    8      -8.150001    9.130000   25.520000       6.0000     15.9994
  335   2 H    1      -7.470000    8.690001   24.950001       1.0000      1.0079
  336   2 H    1      -9.000000    8.720000   25.389999       1.0000      1.0079
  337   1 O    8      14.800000   18.850000   28.950003       6.0000     15.9994
  338   2 H    1      22.800003    5.130000   29.139999       1.0000      1.0079
  339   2 H    1      -1.160000   19.080002   28.530003       1.0000      1.0079
  340   1 O    8      22.040001   30.510002   11.530000       6.0000     15.9994
  341   2 H    1      21.200001   30.900002   11.270000       1.0000      1.0079
  342   2 H    1      21.960001   29.560001   11.560000       1.0000      1.0079
  343   1 O    8      13.030001    0.930000   23.040001       6.0000     15.9994
  344   2 H    1      12.850000    1.870000   23.150002       1.0000      1.0079
  345   2 H    1      13.500000    0.660000   23.850002       1.0000      1.0079
  346   1 O    8      -0.370000   -2.370000   31.780003       6.0000     15.9994
  347   2 H    1      -0.530000   -1.420000   31.770000       1.0000      1.0079
  348   2 H    1      -0.620000   -2.770000   30.940001       1.0000      1.0079
  349   1 O    8       9.660000    1.400000   32.380001       6.0000     15.9994
  350   2 H    1      10.450001    0.860000   32.700001       1.0000      1.0079
  351   2 H    1       9.460000    1.330000   31.410000       1.0000      1.0079
  352   1 O    8       0.190000   19.230001   32.410004       6.0000     15.9994
  353   2 H    1      -0.530000   18.570002   32.190002       1.0000      1.0079
  354   2 H    1       0.760000   18.860001   33.070000       1.0000      1.0079
  355   1 O    8       9.570000    5.010000   21.040001       6.0000     15.9994
  356   2 H    1       9.890000    4.870000   20.100000       1.0000      1.0079
  357   2 H    1       9.020000    4.260000   21.300001       1.0000      1.0079
  358   1 O    8       8.780001   19.960001   20.330000       6.0000     15.9994
  359   2 H    1       8.800000   20.080002   21.320002       1.0000      1.0079
  360   2 H    1       7.800000   19.970001   20.150002       1.0000      1.0079
  361   1 O    8     -29.390001    5.620000   33.410000       6.0000     15.9994
  362   2 H    1     -30.170002    6.160001   33.170002       1.0000      1.0079
  363   2 H    1     -29.570004    4.680000   33.200001       1.0000      1.0079
  364   1 O    8       1.220000   38.580002   14.160000       6.0000     15.9994
  365   2 H    1       1.330000   39.500004   13.850001       1.0000      1.0079
  366   2 H    1       1.280000   38.090004   13.340001       1.0000      1.0079
  367   1 O    8      11.240001   20.400002   14.330001       6.0000     15.9994
  368   2 H    1      11.380000   21.230001   14.960001       1.0000      1.0079
  369   2 H    1      11.790000   20.450001   13.510000       1.0000      1.0079
  370   1 O    8     -16.970001   -7.000000   27.790001       6.0000     15.9994
  371   2 H    1     -17.880001   -6.750000   28.030003       1.0000      1.0079
  372   2 H    1     -16.710001   -6.400001   27.070000       1.0000      1.0079
  373   1 O    8       2.510000   -0.630000   32.680000       6.0000     15.9994
  374   2 H    1       1.970000   -0.340000   31.890001       1.0000      1.0079
  375   2 H    1       1.880000   -0.650000   33.470001       1.0000      1.0079
  376   1 O    8     -16.710001   14.730001    7.940001       6.0000     15.9994
  377   2 H    1     -17.600000   14.370001    8.200001       1.0000      1.0079
  378   2 H    1     -16.020000   14.080001    8.220000       1.0000      1.0079
  379   1 O    8       3.820000   -8.290001   26.610001       6.0000     15.9994
  380   2 H    1       3.580000   -9.200000   26.460001       1.0000      1.0079
  381   2 H    1       3.420000   -7.880001   27.430000       1.0000      1.0079
  382   1 O    8      -0.610000   -4.050000   29.370001       6.0000     15.9994
  383   2 H    1      -0.850000   -3.380000   28.650002       1.0000      1.0079
  384   2 H    1      -1.380000   -4.680000   29.500000       1.0000      1.0079
  385   1 O    8       1.020000   41.160004   18.950001       6.0000     15.9994
  386   2 H    1       0.480000   40.389999   19.010002       1.0000      1.0079
  387   2 H    1       0.370000   41.950001   19.000000       1.0000      1.0079
  388   1 O    8       0.770000   12.870001   14.750000       6.0000     15.9994
  389   2 H    1       0.980000   13.610001   14.110001       1.0000      1.0079
  390   2 H    1       1.380000   12.980001   15.490000       1.0000      1.0079
  391   1 O    8       8.220000    9.440001   14.620000       6.0000     15.9994
  392   2 H    1       9.000000    9.240000   15.300001       1.0000      1.0079
  393   2 H    1       7.410001    8.820001   14.800000       1.0000      1.0079
  394   1 O    8      13.750001   26.990002   20.300003       6.0000     15.9994
  395   2 H    1      22.840002   11.750001   20.670002       1.0000      1.0079
  396   2 H    1      14.010000   27.889999   20.550001       1.0000      1.0079
  397   1 O    8       8.710001    5.930000   13.940001       6.0000     15.9994
  398   2 H    1       8.000000    6.540000   13.650000       1.0000      1.0079
  399   2 H    1       8.290001    5.080000   14.250001       1.0000      1.0079
  400   1 O    8      11.280001   21.160002   30.560001       6.0000     15.9994
  401   2 H    1      10.890001   21.910002   30.100002       1.0000      1.0079
  402   2 H    1      10.530001   20.889999   31.240002       1.0000      1.0079
  403   1 O    8      20.910000   42.420002   28.230001       6.0000     15.9994
  404   2 H    1      21.060001   43.139999   28.940001       1.0000      1.0079
  405   2 H    1      20.690001   43.000000   27.420002       1.0000      1.0079
  406   1 O    8      19.440001  -12.950001   27.980001       6.0000     15.9994
  407   2 H    1      18.570002  -13.090000   28.440001       1.0000      1.0079
  408   2 H    1      20.080002  -13.000001   28.690002       1.0000      1.0079
  409   1 O    8      17.690001   11.430000   11.310000       6.0000     15.9994
  410   2 H    1      17.880001   11.650001   10.360001       1.0000      1.0079
  411   2 H    1      16.860001   10.840001   11.190001       1.0000      1.0079
  412   1 O    8     -25.310001   -5.190001   20.830002       6.0000     15.9994
  413   2 H    1     -25.210001   -5.130000   21.780003       1.0000      1.0079
  414   2 H    1     -26.160002   -5.690000   20.670002       1.0000      1.0079
  415   1 O    8     -22.050001   10.360001   15.020000       6.0000     15.9994
  416   2 H    1     -22.480001    9.940001   15.760001       1.0000      1.0079
  417   2 H    1     -22.570002   11.250000   15.000001       1.0000      1.0079
  418   1 O    8      27.610001   27.390001   16.830002       6.0000     15.9994
  419   2 H    1      27.710001   28.270000   17.320002       1.0000      1.0079
  420   2 H    1      27.140003   26.820002   17.570002       1.0000      1.0079
  421   1 O    8      18.340000   -4.470000    8.970000       6.0000     15.9994
  422   2 H    1      18.820002   -4.410000    8.090000       1.0000      1.0079
  423   2 H    1      19.120001   -4.310000    9.550000       1.0000      1.0079
  424   1 O    8      -6.340000    9.660000   29.780003       6.0000     15.9994
  425   2 H    1      -7.280001    9.840000   29.830000       1.0000      1.0079
  426   2 H    1       2.460000   -4.760000   30.640001       1.0000      1.0079
  427   1 O    8      -3.790000    7.500000   22.660000       6.0000     15.9994
  428   2 H    1      -4.560000    7.680000   23.320000       1.0000      1.0079
  429   2 H    1      -3.950000    6.610000   22.260000       1.0000      1.0079
  430   1 O    8     -18.070000    7.000000   32.790001       6.0000     15.9994
  431   2 H    1     -18.200001    7.190001   33.740002       1.0000      1.0079
  432   2 H    1     -18.860001    7.580000   32.440002       1.0000      1.0079
  433   1 O    8       7.570000  -21.840000   19.300001       6.0000     15.9994
  434   2 H    1       7.880001  -22.720001   19.030001       1.0000      1.0079
  435   2 H    1       6.760001  -21.990002   19.820002       1.0000      1.0079
  436   1 O    8       3.060000   18.060001   33.000000       6.0000     15.9994
  437   2 H    1       2.260000   17.420002   32.890003       1.0000      1.0079
  438   2 H    1      12.360001    3.000000   32.990002       1.0000      1.0079
  439   1 O    8      -3.430000    4.470000   29.330002       6.0000     15.9994
  440   2 H    1      -3.390000    4.480000   30.340002       1.0000      1.0079
  441   2 H    1      -4.370000    4.440001   29.070000       1.0000      1.0079
  442   1 O    8       5.700001    9.030001   29.920002       6.0000     15.9994
  443   2 H    1       5.400000    9.130000   30.880001       1.0000      1.0079
  444   2 H    1       5.620000    8.080000   29.900002       1.0000      1.0079
  445   1 O    8     -10.900001    2.740000   25.230000       6.0000     15.9994
  446   2 H    1      -9.990001    3.050000   25.400002       1.0000      1.0079
  447   2 H    1     -11.260000    2.280000   26.030003       1.0000      1.0079
  448   1 O    8       5.250000  -12.270001   12.630000       6.0000     15.9994
  449   2 H    1       4.950000  -12.630000   13.470001       1.0000      1.0079
  450   2 H    1      21.340000  -11.840000   12.220000       1.0000      1.0079
  451   1 O    8      21.210001   18.320002   24.030001       6.0000     15.9994
  452   2 H    1      20.600002   18.330000   24.830000       1.0000      1.0079
  453   2 H    1      22.160000   18.240002   24.320002       1.0000      1.0079
  454   1 O    8       4.670000    9.400001   32.250000       6.0000     15.9994
  455   2 H    1       5.450000    9.460000   32.900002       1.0000      1.0079
  456   2 H    1       4.320000   10.300001   32.050003       1.0000      1.0079
  457   1 O    8      10.150002  -21.730001    8.400001       6.0000     15.9994
  458   2 H    1      10.010000  -20.780001    8.520000       1.0000      1.0079
  459   2 H    1       9.320001  -22.150002    8.830000       1.0000      1.0079
  460   1 O    8      32.490002    9.880000   11.240001       6.0000     15.9994
  461   2 H    1      31.620003   10.280000   11.420001       1.0000      1.0079
  462   2 H    1      15.690001    9.230001   11.980001       1.0000      1.0079
  463   1 O    8      -8.780001  -23.270000    9.410001       6.0000     15.9994
  464   2 H    1      -9.240000  -23.500002   10.240001       1.0000      1.0079
  465   2 H    1      -8.280001  -24.139999    9.220000       1.0000      1.0079
  466   1 O    8      17.190001  -12.250000   22.010002       6.0000     15.9994
  467   2 H    1      17.780001  -12.960000   21.639999       1.0000      1.0079
  468   2 H    1      16.460001  -12.840000   22.369999       1.0000      1.0079
  469   1 O    8      -7.850000   -5.670000   32.300003       6.0000     15.9994
  470   2 H    1      -8.330001   -4.830000   32.540001       1.0000      1.0079
  471   2 H    1      -8.470000   -6.400001   32.490002       1.0000      1.0079
  472   1 O    8      -2.260000   -6.510000   25.440002       6.0000     15.9994
  473   2 H    1      -2.840000   -5.630000   25.300003       1.0000      1.0079
  474   2 H    1      -2.690000   -6.930000   26.140001       1.0000      1.0079
  475   1 O    8      23.350000   -2.040000   15.710001       6.0000     15.9994
  476   2 H    1      22.930002   -2.230000   14.840001       1.0000      1.0079
  477   2 H    1      24.310001   -2.000000   15.330001       1.0000      1.0079
  478   1 O    8     -14.650001   34.620003   17.450001       6.0000     15.9994
  479   2 H    1     -15.550001   34.320000   17.630001       1.0000      1.0079
  480   2 H    1     -14.810000   35.570000   17.200001       1.0000      1.0079
  481   1 O    8       3.210000   10.960001   21.049999       6.0000     15.9994
  482   2 H    1       2.690000   10.690001   20.250000       1.0000      1.0079
  483   2 H    1       3.910000   11.630001   20.710001       1.0000      1.0079
  484   1 O    8      -1.310000   44.310001   23.240002       6.0000     15.9994
  485   2 H    1      -1.590000   44.250000   24.190002       1.0000      1.0079
  486   2 H    1      -1.200000   43.330002   23.020000       1.0000      1.0079
  487   1 O    8      -4.300000   47.850002   24.050003       6.0000     15.9994
  488   2 H    1      -5.170000   47.900005   24.580002       1.0000      1.0079
  489   2 H    1      -3.580000   47.369999   24.560001       1.0000      1.0079
  490   1 O    8       7.120000   23.600002   15.590000       6.0000     15.9994
  491   2 H    1       6.470000   23.250000   14.880000       1.0000      1.0079
  492   2 H    1       7.950000   23.630001   15.110001       1.0000      1.0079
  493   1 O    8      -2.800000    7.970000   29.570004       6.0000     15.9994
  494   2 H    1     -10.740000   21.750002   29.470001       1.0000      1.0079
  495   2 H    1      -3.790000    7.720000   29.450001       1.0000      1.0079
  496   1 O    8       4.640000   10.120001   25.750000       6.0000     15.9994
  497   2 H    1      -4.130000   24.670000   26.670000       1.0000      1.0079
  498   2 H    1      -4.530000   25.150002   25.180000       1.0000      1.0079
  499   1 O    8      13.520001   19.970001   16.430000       6.0000     15.9994
  500   2 H    1      12.560000   19.960001   16.540001       1.0000      1.0079
  501   2 H    1      13.900002   20.010002   17.300001       1.0000      1.0079
  502   1 O    8      -2.770000    0.130000   25.150002       6.0000     15.9994
  503   2 H    1      -3.660000   -0.050000   25.500002       1.0000      1.0079
  504   2 H    1      -2.340000   -0.830000   24.920002       1.0000      1.0079
  505   1 O    8      30.590002   16.970001   14.030001       6.0000     15.9994
[...]
    900      3      Pt         -0.01960852    -0.00292608    -0.00581395
    901      3      Pt          0.01320026     0.00597500    -0.00862205
    902      3      Pt          0.00312155    -0.01119126     0.00331806
    903      3      Pt          0.00264071    -0.00181492    -0.01826296
    904      3      Pt         -0.00880806    -0.01239652     0.00787968
    905      3      Pt          0.00502698    -0.01309144    -0.00267406
    906      3      Pt          0.00540811     0.01426465     0.01886451
 SUM OF ATOMIC FORCES          -0.00301567     0.01751782    -0.01062503     0.02070893

 STRESS| Analytical stress tensor [GPa]
 STRESS|                        x                   y                   z
 STRESS|      x       -2.41448160804E+00  -4.39532409861E-02   3.37579922878E-01
 STRESS|      y       -4.39532409861E-02  -2.35029038856E+00  -8.96416525659E-02
 STRESS|      z        3.37579922878E-01  -8.96416525659E-02  -3.24616176154E-02
 STRESS| 1/3 Trace                                            -1.59907787141E+00
 STRESS| Determinant                                           1.05753303557E-01

 STRESS| Eigenvectors and eigenvalues of the analytical stress tensor [GPa]
 STRESS|                        1                   2                   3
 STRESS| Eigenvalues  -2.46979652019E+00  -2.34569125683E+00   1.82541627973E-02
 STRESS|      x           0.957752347163     -0.252295998699      0.138047711116
 STRESS|      y           0.259920401379      0.964800571749     -0.040015518235
 STRESS|      z          -0.123092755476      0.074206372995      0.989616889385

 -------------------------------------------------------------------------------
 -                                                                             -
 -                                DBCSR STATISTICS                             -
 -                                                                             -
 -------------------------------------------------------------------------------
 COUNTER                                    TOTAL       BLAS       SMM       ACC
 flops     5 x     5 x   288          87811257600       0.0%    100.0%      0.0%
 flops     5 x     5 x   292          89030858400       0.0%    100.0%      0.0%
 flops    13 x     5 x   288          99067250880       0.0%    100.0%      0.0%
 flops     5 x    13 x   288          99173393280       0.0%    100.0%      0.0%
 flops    13 x     5 x   292         100443184920       0.0%    100.0%      0.0%
 flops     5 x    13 x   292         100550801520       0.0%    100.0%      0.0%
 flops    20 x    13 x   288         100732170240       0.0%    100.0%      0.0%
 flops    13 x    20 x   288         100792823040       0.0%    100.0%      0.0%
 flops    20 x    13 x   292         102131228160       0.0%    100.0%      0.0%
 flops    13 x    20 x   292         102192723360       0.0%    100.0%      0.0%
 flops    13 x    13 x   288         105822759744       0.0%    100.0%      0.0%
 flops    13 x    13 x   292         107292520296       0.0%    100.0%      0.0%
 flops     5 x    20 x   288         109706918400       0.0%    100.0%      0.0%
 flops    20 x     5 x   288         110117491200       0.0%    100.0%      0.0%
 flops     5 x    20 x   292         111230625600       0.0%    100.0%      0.0%
 flops    20 x     5 x   292         111646900800       0.0%    100.0%      0.0%
 flops    20 x    20 x   288         437372006400       0.0%    100.0%      0.0%
 flops    20 x    20 x   292         443446617600       0.0%    100.0%      0.0%
 flops     5 x     5 x   320         585408384000       0.0%    100.0%      0.0%
 flops    13 x     5 x   320         660448339200       0.0%    100.0%      0.0%
 flops     5 x    13 x   320         661155955200       0.0%    100.0%      0.0%
 flops    20 x    13 x   320         671547801600       0.0%    100.0%      0.0%
 flops    13 x    20 x   320         671952153600       0.0%    100.0%      0.0%
 flops    13 x    13 x   320         705485064960       0.0%    100.0%      0.0%
 flops     5 x    20 x   320         731379456000       0.0%    100.0%      0.0%
 flops    20 x     5 x   320         734116608000       0.0%    100.0%      0.0%
 flops    20 x    20 x   320        2915813376000       0.0%    100.0%      0.0%
 flops inhomo. stacks                           0       0.0%      0.0%      0.0%
 flops total                        10.855869E+12       0.0%    100.0%      0.0%
 flops max/rank                    178.869465E+09       0.0%    100.0%      0.0%
 matmuls inhomo. stacks                         0       0.0%      0.0%      0.0%
 matmuls total                          156322872       0.0%    100.0%      0.0%
 number of processed stacks                414720       0.0%    100.0%      0.0%
 average stack size                                     0.0     376.9       0.0
 marketing flops                    30.828042E+12
 -------------------------------------------------------------------------------
 # multiplications                             81
 max memory usage/rank               1.866310E+09
 # max total images/rank                        1
 # max 3D layers                                1
 # MPI messages exchanged                   72576
 MPI messages size (bytes):
  total size                       217.954714E+09
  min size                           2.762496E+06
  max size                           3.077120E+06
  average size                       3.003124E+06
 MPI breakdown and total messages size (bytes):
             size <=      128                   0                        0
       128 < size <=     8192                   0                        0
      8192 < size <=    32768                   0                        0
     32768 < size <=   131072                   0                        0
    131072 < size <=  4194304               72576             217954800000
   4194304 < size <= 16777216                   0                        0
  16777216 < size                               0                        0
 -------------------------------------------------------------------------------
 -                                                                             -
 -                      DBCSR MESSAGE PASSING PERFORMANCE                      -
 -                                                                             -
 -------------------------------------------------------------------------------
 ROUTINE             CALLS      AVE VOLUME [Bytes]
 MP_Bcast               28                     12.
 MP_Allreduce          641                     10.
 MP_Alltoall          2268                1990246.
 MP_ISend             2592                1329597.
 MP_IRecv             2592                1310413.
 -------------------------------------------------------------------------------

 -------------------------------------------------------------------------------
 -                                                                             -
 -                                DBM STATISTICS                               -
 -                                                                             -
 -------------------------------------------------------------------------------
    M  x    N  x    K                                          COUNT     PERCENT
 -------------------------------------------------------------------------------

 -------------------------------------------------------------------------------
 -                                                                             -
 -                                GRID STATISTICS                              -
 -                                                                             -
 -------------------------------------------------------------------------------
 LP    KERNEL             BACKEND                              COUNT     PERCENT
 3     collocate general  REF                               56227689      18.87%
 3     integrate general  REF                               55591504      18.66%
 2     collocate general  REF                               52969140      17.78%
 2     integrate general  REF                               52315200      17.56%
 4     collocate general  REF                               39663270      13.31%
 4     integrate general  REF                               39173600      13.15%
 6     integrate general  REF                                 694169       0.23%
 5     integrate general  REF                                 653940       0.22%
 7     integrate general  REF                                 489670       0.16%
 0     collocate general  REF                                 115968       0.04%
 0     integrate general  REF                                  57984       0.02%
 -------------------------------------------------------------------------------

 MEMORY| Estimated peak process memory [MiB]                                2091

 -------------------------------------------------------------------------------
 ----                             MULTIGRID INFO                            ----
 -------------------------------------------------------------------------------
 count for grid        1:         731164          cutoff [a.u.]          200.00
 count for grid        2:         807057          cutoff [a.u.]           66.67
 count for grid        3:         741327          cutoff [a.u.]           22.22
 count for grid        4:         831409          cutoff [a.u.]            7.41
 total gridlevel count  :        3110957

 -------------------------------------------------------------------------------
 -                                                                             -
 -                         MESSAGE PASSING PERFORMANCE                         -
 -                                                                             -
 -------------------------------------------------------------------------------

 ROUTINE             CALLS      AVE VOLUME [Bytes]
 MP_Group                4
 MP_Bcast              262                2253303.
 MP_Allreduce         1365                   1836.
 MP_Sync                84
 MP_Alltoall          1798               13409927.
 MP_SendRecv           252                  14190.
 MP_ISendRecv        20412                 113680.
 MP_Wait             45668
 MP_ISend            23616                 340043.
 MP_IRecv            23616                 340043.
 MP_Recv               308                2460160.
 MP_Write_All            3                1540656.
 -------------------------------------------------------------------------------


 -------------------------------------------------------------------------------
 -                                                                             -
 -                           R E F E R E N C E S                               -
 -                                                                             -
 -------------------------------------------------------------------------------
 
 CP2K version 2022.1, the CP2K developers group (2022).
 CP2K is freely available from https://www.cp2k.org/ .

 Kuehne,Thomas D.; Iannuzzi,Marcella; Del Ben,Mauro;
 Rybkin,Vladimir V.; Seewald,Patrick; Stein,Frederick; Laino,Teodoro;
 Khaliullin,Rustam Z.; Schuett,Ole; Schiffmann,Florian; Golze,Dorothea;
 Wilhelm,Jan; Chulkov,Sergey; Bani-Hashemian,Mohammad Hossein;
 Weber,Valery; Borstnik,Urban; Taillefumier,Mathieu;
 Jakobovits,Alice Shoshana; Lazzaro,Alfio; Pabst,Hans; Mueller,Tiziano;
 Schade,Robert; Guidon,Manuel; Andermatt,Samuel; Holmberg,Nico;
 Schenter,Gregory K.; Hehn,Anna; Bussy,Augustin; Belleflamme,Fabian;
 Tabacchi,Gloria; Gloess,Andreas; Lass,Michael; Bethune,Iain;
 Mundy,Christopher J.; Plessl,Christian; Watkins,Matt;
 VandeVondele,Joost; Krack,Matthias; Hutter,Juerg. 
 The Journal of Chemical Physics, 152 (19), (2020). 
 CP2K: An electronic structure and molecular dynamics software package -
 Quickstep: Efficient and accurate electronic structure calculations.
 https://doi.org/10.1063/5.0007045

 Goerigk, Lars; Hansen, Andreas; Bauer, Christoph; Ehrlich, Stephan;
 Najibi, Asim; Grimme, Stefan. , 19 (48), (2017). 
 A look at the density functional theory zoo with the advanced GMTKN55 database
 for general main group thermochemistry, kinetics and noncovalent interactions.
 https://doi.org/10.1039/C7CP04913G

 Schuett, Ole; Messmer, Peter; Hutter, Juerg; VandeVondele, Joost. 
 Electronic Structure Calculations on Graphics Processing Units, John
 Wiley & Sons, Ltd, 173-190 (2016). 
 GPU-Accelerated Sparse Matrix-Matrix Multiplication for
 Linear Scaling Density Functional Theory.
 https://doi.org/10.1002/9781118670712.ch8

 Heinecke, A; Henry, G; Hutchinson, M; Pabst, H. 
 Proceedings of Intl. Supercomputing Conference, 981-991 (2016). 
 LIBXSMM: Accelerating Small Matrix Multiplications
 by Runtime Code Generation.
 https://doi.org/10.1109/SC.2016.83

 Borstnik, U; VandeVondele, J; Weber, V; Hutter, J. 
 PARALLEL COMPUTING, 40 (5-6), 47-58 (2014). 
 Sparse matrix multiplication: The distributed block-compressed sparse
 row library.
 https://doi.org/10.1016/j.parco.2014.03.012

 Hutter, J; Iannuzzi, M; Schiffmann, F; VandeVondele, J. 
 WIREs Comput Mol Sci., 4 (1), 15-25 (2014). 
 CP2K: atomistic simulations of condensed matter systems.
 https://doi.org/10.1002/wcms.1159

 Marek, A; Blum, V; Johanni, R; Havu, V; Lang, B; Auckenthaler, T;
 Heinecke, A; Bungartz, H; Lederer, H. 
 Journal of Physics: Condensed Matter, 26 (21), (2014). 
 The ELPA library: scalable parallel eigenvalue solutions for
 electronic structure
 theory and computational science.
 https://doi.org/10.1088/0953-8984/26/21/213201

 Grimme, S; Ehrlich, S; Goerigk, L. 
 JOURNAL OF COMPUTATIONAL CHEMISTRY, 32, 1456 (2011). 
 Effect of the damping function in dispersion corrected density functional theory.
 https://doi.org/10.1002/jcc.21759

 Grimme, S; Antony, J; Ehrlich, S; Krieg, H. 
 JOURNAL OF CHEMICAL PHYSICS, 132 (15), 154104 (2010). 
 A consistent and accurate ab initio parametrization of density
 functional dispersion correction (DFT-D) for the 94 elements H-Pu.
 https://doi.org/10.1063/1.3382344

 VandeVondele, J; Hutter, J. 
 JOURNAL OF CHEMICAL PHYSICS, 127 (11), 114105 (2007). 
 Gaussian basis sets for accurate calculations on molecular systems in
 gas and condensed phases.
 https://doi.org/10.1063/1.2770708

 Krack, M. 
 THEORETICAL CHEMISTRY ACCOUNTS, 114 (1-3), 145-152 (2005). 
 Pseudopotentials for H to Kr optimized for gradient-corrected
 exchange-correlation functionals.
 https://doi.org/10.1007/s00214-005-0655-y

 VandeVondele, J; Krack, M; Mohamed, F; Parrinello, M; Chassaing, T;
 Hutter, J. COMPUTER PHYSICS COMMUNICATIONS, 167 (2), 103-128 (2005). 
 QUICKSTEP: Fast and accurate density functional calculations using a
 mixed Gaussian and plane waves approach.
 https://doi.org/10.1016/j.cpc.2004.12.014

 Frigo, M; Johnson, SG. 
 PROCEEDINGS OF THE IEEE, 93 (2), 216-231 (2005). 
 The design and implementation of FFTW3.
 https://doi.org/10.1109/JPROC.2004.840301

 Hartwigsen, C; Goedecker, S; Hutter, J. 
 PHYSICAL REVIEW B, 58 (7), 3641-3662 (1998). 
 Relativistic separable dual-space Gaussian pseudopotentials from H to Rn.
 https://doi.org/10.1103/PhysRevB.58.3641

 Lippert, G; Hutter, J; Parrinello, M. 
 MOLECULAR PHYSICS, 92 (3), 477-487 (1997). 
 A hybrid Gaussian and plane wave density functional scheme.
 https://doi.org/10.1080/002689797170220

 Perdew, JP; Burke, K; Ernzerhof, M. 
 PHYSICAL REVIEW LETTERS, 77 (18), 3865-3868 (1996). 
 Generalized gradient approximation made simple.
 https://doi.org/10.1103/PhysRevLett.77.3865

 Goedecker, S; Teter, M; Hutter, J. 
 PHYSICAL REVIEW B, 54 (3), 1703-1710 (1996). 
 Separable dual-space Gaussian pseudopotentials.
 https://doi.org/10.1103/PhysRevB.54.1703


 -------------------------------------------------------------------------------
 -                                                                             -
 -                                T I M I N G                                  -
 -                                                                             -
 -------------------------------------------------------------------------------
 SUBROUTINE                       CALLS  ASD         SELF TIME        TOTAL TIME
                                MAXIMUM       AVERAGE  MAXIMUM  AVERAGE  MAXIMUM
 CP2K                                 1  1.0    0.024    0.039  958.304  958.306
 qs_forces                            1  2.0    0.002    0.003  957.911  957.913
 qs_energies                          1  3.0    0.000    0.000  945.365  945.375
 scf_env_do_scf                       1  4.0    0.000    0.000  937.017  937.262
 scf_env_do_scf_inner_loop           80  5.0    0.004    0.013  937.017  937.261
 qs_scf_new_mos                      80  6.0    0.004    0.012  381.305  382.173
 eigensolver                         80  7.0    0.007    0.011  354.369  354.767
 rebuild_ks_matrix                   81  7.0    0.000    0.000  296.471  296.525
 qs_ks_build_kohn_sham_matrix        81  8.0    0.013    0.014  296.470  296.524
 qs_ks_update_qs_env                 80  6.0    0.001    0.001  288.532  288.586
 qs_rho_update_rho_low               81  6.0    0.001    0.001  252.697  252.730
 calculate_rho_elec                  81  7.0    0.190    0.225  252.696  252.729
 sum_up_and_integrate                81  9.0    0.339    0.420  248.652  248.718
 integrate_v_rspace                  81 10.0    0.003    0.004  248.312  248.406
 grid_collocate_task_list            81  8.0  222.245  228.179  222.245  228.179
 grid_integrate_task_list            81 11.0  216.533  222.306  216.533  222.306
 cp_fm_diag_elpa                     80  8.0    0.001    0.001  207.918  208.442
 cp_fm_diag_elpa_base                80  9.0  204.708  205.453  207.550  207.602
 cp_fm_triangular_multiply          240  8.0  143.493  145.268  143.493  145.268
 pw_transfer                       1620 10.9    0.116    0.145   45.056   46.114
 fft_wrap_pw1pw2                   1458 12.0    0.014    0.017   44.539   45.551
 rs_pw_transfer                     652 10.5    0.007    0.008   39.278   44.613
 fft_wrap_pw1pw2_200                972 13.3    3.998    4.313   42.834   43.735
 qs_vxc_create                       81  9.0    0.003    0.003   42.099   42.324
 xc_vxc_pw_create                    81 10.0    0.745    0.785   42.096   42.322
 fft3d_ps                          1458 14.0   16.126   18.062   32.884   34.288
 density_rs2pw                       81  8.0    0.005    0.006   27.975   33.306
 xc_pw_derive                       486 12.0    0.008    0.010   26.870   28.123
 xc_rho_set_and_dset_create          81 11.0    0.398    0.427   22.533   24.099
 potential_pw2rs                     81 11.0    0.030    0.036   23.505   23.592
 mp_waitany                       23616 12.4   16.939   22.066   16.939   22.066
 rs_pw_transfer_RS2PW_200            83 10.0    5.216    5.666   15.608   21.009
 calculate_dm_sparse                 80  7.0    0.025    0.031   19.624   20.386
 cp_dbcsr_plus_fm_fm_t_native        81  8.0    0.004    0.010   19.568   20.366
 xc_pw_divergence                    81 11.0    0.004    0.005   18.243   19.203
 -------------------------------------------------------------------------------

 The number of warnings for this run is : 1
 
 -------------------------------------------------------------------------------
  **** **** ******  **  PROGRAM ENDED AT                 2023-11-26 16:07:04.250
 ***** ** ***  *** **   PROGRAM RAN ON                                     cu054
 **    ****   ******    PROGRAM RAN BY                                     jxzhu
 ***** **    ** ** **   PROGRAM PROCESS ID                                 28319
  **** **  *******  **  PROGRAM STOPPED IN /public/home/jxzhu/tmp_calc/af2075565
                                           805657d94fa4669dad6f4b174b0a4fb/calc/
                                           001900.000/pbc
