 DBCSR| CPU Multiplication driver                                           XSMM
 DBCSR| Multrec recursion limit                                              512
 DBCSR| Multiplication stack size                                           1000
 DBCSR| Maximum elements for images                                    UNLIMITED
 DBCSR| Multiplicative factor virtual images                                   1
 DBCSR| Use multiplication densification                                       T
 DBCSR| Multiplication size stacks                                             3
 DBCSR| Number of 3D layers                                               SINGLE
 DBCSR| Use MPI memory allocation                                              T
 DBCSR| Use RMA algorithm                                                      F
 DBCSR| Use Communication thread                                               T
 DBCSR| Communication thread load                                             87


  **** **** ******  **  PROGRAM STARTED AT               2024-11-01 23:59:06.806
 ***** ** ***  *** **   PROGRAM STARTED ON                               c53-012
 **    ****   ******    PROGRAM STARTED BY                                 jxzhu
 ***** **    ** ** **   PROGRAM PROCESS ID                                267828
  **** **  *******  **  PROGRAM STARTED IN /data/jxzhu/nnp/dp_workdir/d1f764b96e
                                           9a01b62c3e35b0c4f5198f3ba3ed59/calc.0
                                           00/task.003.000005

 CP2K| version string:                                          CP2K version 7.1
 CP2K| source code revision number:                                  git:e635599
 CP2K| cp2kflags: libint fftw3 libxc elpa parallel mpi3 scalapack xsmm spglib   
 CP2K| is freely available from                            https://www.cp2k.org/
 CP2K| Program compiled at                           Mon Mar 8 20:53:19 CST 2021
 CP2K| Program compiled on                                                 mgt01
 CP2K| Program compiled for                                                local
 CP2K| Data directory path                                    /data/jxzhu/basis/
 CP2K| Input file name                                                 input.inp

 GLOBAL| Force Environment number                                              1
 GLOBAL| Basis set file name                                        BASIS_MOLOPT
 GLOBAL| Potential file name                                      GTH_POTENTIALS
 GLOBAL| MM Potential file name                                     MM_POTENTIAL
 GLOBAL| Coordinate file name                                          coord.xyz
 GLOBAL| Method name                                                        CP2K
 GLOBAL| Project name                                                       cp2k
 GLOBAL| Preferred FFT library                                             FFTW3
 GLOBAL| Preferred diagonalization lib.                                     ELPA
 GLOBAL| Run type                                                   ENERGY_FORCE
 GLOBAL| All-to-all communication in single precision                          F
 GLOBAL| FFTs using library dependent lengths                                  F
 GLOBAL| Global print level                                               MEDIUM
 GLOBAL| MPI I/O enabled                                                       T
 GLOBAL| Total number of message passing processes                            32
 GLOBAL| Number of threads for this process                                    1
 GLOBAL| This output is from process                                           0
 GLOBAL| CPU model name                Intel(R) Xeon(R) Gold 6226R CPU @ 2.90GHz
 GLOBAL| CPUID                                                              1003
 GLOBAL| Compiled for CPUID                                                 1002
 HINT in environment.F:814 The compiler target flags (x86_avx2) used to build
   this binary cannot exploit all extensions of this CPU model (x86_avx512).
   Consider compiler target flags as part of FCFLAGS and CFLAGS (ARCH file).

 MEMORY| system memory details [Kb]
 MEMORY|                        rank 0           min           max       average
 MEMORY| MemTotal            196472820     196472820     196472820     196472820
 MEMORY| MemFree             182931660     182931660     182931660     182931660
 MEMORY| Buffers                  2196          2196          2196          2196
 MEMORY| Cached                 798624        798624        798624        798624
 MEMORY| Slab                   433164        433164        433164        433164
 MEMORY| SReclaimable           136360        136360        136360        136360
 MEMORY| MemLikelyFree       183868840     183868840     183868840     183868840


 *** Fundamental physical constants (SI units) ***

 *** Literature: B. J. Mohr and B. N. Taylor,
 ***             CODATA recommended values of the fundamental physical
 ***             constants: 2006, Web Version 5.1
 ***             http://physics.nist.gov/constants

 Speed of light in vacuum [m/s]                             2.99792458000000E+08
 Magnetic constant or permeability of vacuum [N/A**2]       1.25663706143592E-06
 Electric constant or permittivity of vacuum [F/m]          8.85418781762039E-12
 Planck constant (h) [J*s]                                  6.62606896000000E-34
 Planck constant (h-bar) [J*s]                              1.05457162825177E-34
 Elementary charge [C]                                      1.60217648700000E-19
 Electron mass [kg]                                         9.10938215000000E-31
 Electron g factor [ ]                                     -2.00231930436220E+00
 Proton mass [kg]                                           1.67262163700000E-27
 Fine-structure constant                                    7.29735253760000E-03
 Rydberg constant [1/m]                                     1.09737315685270E+07
 Avogadro constant [1/mol]                                  6.02214179000000E+23
 Boltzmann constant [J/K]                                   1.38065040000000E-23
 Atomic mass unit [kg]                                      1.66053878200000E-27
 Bohr radius [m]                                            5.29177208590000E-11

 *** Conversion factors ***

 [u] -> [a.u.]                                              1.82288848426455E+03
 [Angstrom] -> [Bohr] = [a.u.]                              1.88972613288564E+00
 [a.u.] = [Bohr] -> [Angstrom]                              5.29177208590000E-01
 [a.u.] -> [s]                                              2.41888432650478E-17
 [a.u.] -> [fs]                                             2.41888432650478E-02
 [a.u.] -> [J]                                              4.35974393937059E-18
 [a.u.] -> [N]                                              8.23872205491840E-08
 [a.u.] -> [K]                                              3.15774647902944E+05
 [a.u.] -> [kJ/mol]                                         2.62549961709828E+03
 [a.u.] -> [kcal/mol]                                       6.27509468713739E+02
 [a.u.] -> [Pa]                                             2.94210107994716E+13
 [a.u.] -> [bar]                                            2.94210107994716E+08
 [a.u.] -> [atm]                                            2.90362800883016E+08
 [a.u.] -> [eV]                                             2.72113838565563E+01
 [a.u.] -> [Hz]                                             6.57968392072181E+15
 [a.u.] -> [1/cm] (wave numbers)                            2.19474631370540E+05
 [a.u./Bohr**2] -> [1/cm]                                   5.14048714338585E+03
 

 CELL_TOP| Volume [angstrom^3]:                                         4542.849
 CELL_TOP| Vector a [angstrom    11.246     0.000     0.000    |a| =      11.246
 CELL_TOP| Vector b [angstrom     0.000     9.739     0.000    |b| =       9.739
 CELL_TOP| Vector c [angstrom     0.000     0.000    41.478    |c| =      41.478
 CELL_TOP| Angle (b,c), alpha [degree]:                                   90.000
 CELL_TOP| Angle (a,c), beta  [degree]:                                   90.000
 CELL_TOP| Angle (a,b), gamma [degree]:                                   90.000
 CELL_TOP| Numerically orthorhombic:                                         YES

 GENERATE|  Preliminary Number of Bonds generated:                             0
 GENERATE|  Achieved consistency in connectivity generation.

 CELL| Volume [angstrom^3]:                                             4542.849
 CELL| Vector a [angstrom]:      11.246     0.000     0.000    |a| =      11.246
 CELL| Vector b [angstrom]:       0.000     9.739     0.000    |b| =       9.739
 CELL| Vector c [angstrom]:       0.000     0.000    41.478    |c| =      41.478
 CELL| Angle (b,c), alpha [degree]:                                       90.000
 CELL| Angle (a,c), beta  [degree]:                                       90.000
 CELL| Angle (a,b), gamma [degree]:                                       90.000
 CELL| Numerically orthorhombic:                                             YES

 CELL_REF| Volume [angstrom^3]:                                         4542.849
 CELL_REF| Vector a [angstrom    11.246     0.000     0.000    |a| =      11.246
 CELL_REF| Vector b [angstrom     0.000     9.739     0.000    |b| =       9.739
 CELL_REF| Vector c [angstrom     0.000     0.000    41.478    |c| =      41.478
 CELL_REF| Angle (b,c), alpha [degree]:                                   90.000
 CELL_REF| Angle (a,c), beta  [degree]:                                   90.000
 CELL_REF| Angle (a,b), gamma [degree]:                                   90.000
 CELL_REF| Numerically orthorhombic:                                         YES

 *******************************************************************************
 *******************************************************************************
 **                                                                           **
 **     #####                         ##              ##                      **
 **    ##   ##            ##          ##              ##                      **
 **   ##     ##                       ##            ######                    **
 **   ##     ##  ##   ##  ##   #####  ##  ##   ####   ##    #####    #####    **
 **   ##     ##  ##   ##  ##  ##      ## ##   ##      ##   ##   ##  ##   ##   **
 **   ##  ## ##  ##   ##  ##  ##      ####     ###    ##   ######   ######    **
 **    ##  ###   ##   ##  ##  ##      ## ##      ##   ##   ##       ##        **
 **     #######   #####   ##   #####  ##  ##  ####    ##    #####   ##        **
 **           ##                                                    ##        **
 **                                                                           **
 **                                                ... make the atoms dance   **
 **                                                                           **
 **            Copyright (C) by CP2K developers group (2000 - 2019)           **
 **                                                                           **
 *******************************************************************************

 DFT| Spin restricted Kohn-Sham (RKS) calculation                            RKS
 DFT| Multiplicity                                                             1
 DFT| Number of spin states                                                    1
 DFT| Charge                                                                   0
 DFT| Self-interaction correction (SIC)                                       NO
 DFT| Cutoffs: density                                              1.000000E-10
 DFT|          gradient                                             1.000000E-10
 DFT|          tau                                                  1.000000E-10
 DFT|          cutoff_smoothing_range                               0.000000E+00
 DFT| XC density smoothing                                                  NONE
 DFT| XC derivatives                                                          PW
 FUNCTIONAL| ROUTINE=NEW
 FUNCTIONAL| PBE:
 FUNCTIONAL| J.P.Perdew, K.Burke, M.Ernzerhof, Phys. Rev. Letter, vol. 77, n 18,
 FUNCTIONAL|  pp. 3865-3868, (1996){spin unpolarized}                           
 vdW POTENTIAL|                                                   Pair Potential
 vdW POTENTIAL|          DFT-D3 (Version 3.1)
 vdW POTENTIAL|          Potential Form: S. Grimme et al, JCP 132: 154104 (2010)
 vdW POTENTIAL|          Zero Damping
 vdW POTENTIAL|          Cutoff Radius [Bohr]:                             20.00
 vdW POTENTIAL|          s6 Scaling Factor:                               1.0000
 vdW POTENTIAL|          sr6 Scaling Factor:                              1.2170
 vdW POTENTIAL|          s8 Scaling Factor:                               0.7220
 vdW POTENTIAL|          Cutoff for CN calculation:                   0.1000E-05

 QS| Method:                                                                 GPW
 QS| Density plane wave grid type                        NON-SPHERICAL FULLSPACE
 QS| Number of grid levels:                                                    4
 QS| Density cutoff [a.u.]:                                                200.0
 QS| Multi grid cutoff [a.u.]: 1) grid level                               200.0
 QS|                           2) grid level                                66.7
 QS|                           3) grid level                                22.2
 QS|                           4) grid level                                 7.4
 QS| Grid level progression factor:                                          3.0
 QS| Relative density cutoff [a.u.]:                                        20.0
 QS| Consistent realspace mapping and integration 
 QS| Interaction thresholds: eps_pgf_orb:                                3.2E-07
 QS|                         eps_filter_matrix:                          0.0E+00
 QS|                         eps_core_charge:                            1.0E-15
 QS|                         eps_rho_gspace:                             1.0E-13
 QS|                         eps_rho_rspace:                             1.0E-13
 QS|                         eps_gvg_rspace:                             3.2E-07
 QS|                         eps_ppl:                                    1.0E-02
 QS|                         eps_ppnl:                                   3.2E-09


 ATOMIC KIND INFORMATION

  1. Atomic kind: Pt                                    Number of atoms:      96

     Orbital Basis Set                      DZVP-A5-Q10-323-MOL-T1-DERIVED_SET-1

       Number of orbital shell sets:                                           1
       Number of orbital shells:                                               6
       Number of primitive Cartesian functions:                                5
       Number of Cartesian basis functions:                                   23
       Number of spherical basis functions:                                   20
       Norm type:                                                              2

       Normalised Cartesian orbitals:

                        Set   Shell   Orbital            Exponent    Coefficient

                          1       1    2s                2.521825       0.177473
                                                         1.453920      -0.063399
                                                         0.614053      -0.407089
                                                         0.232656       0.262254
                                                         0.074788       0.047371

                          1       2    3s                2.521825      -0.049056
                                                         1.453920       0.044904
                                                         0.614053      -0.009756
                                                         0.232656      -0.144709
                                                         0.074788       0.144085

                          1       3    3px               2.521825      -0.317572
                                                         1.453920       0.534826
                                                         0.614053      -0.489458
                                                         0.232656       0.245631
                                                         0.074788       0.018221
                          1       3    3py               2.521825      -0.317572
                                                         1.453920       0.534826
                                                         0.614053      -0.489458
                                                         0.232656       0.245631
                                                         0.074788       0.018221
                          1       3    3pz               2.521825      -0.317572
                                                         1.453920       0.534826
                                                         0.614053      -0.489458
                                                         0.232656       0.245631
                                                         0.074788       0.018221

                          1       4    4dx2              2.521825       3.008522
                                                         1.453920      -1.224251
                                                         0.614053       0.225691
                                                         0.232656       0.125144
                                                         0.074788      -0.015348
                          1       4    4dxy              2.521825       5.210912
                                                         1.453920      -2.120465
                                                         0.614053       0.390909
                                                         0.232656       0.216756
                                                         0.074788      -0.026584
                          1       4    4dxz              2.521825       5.210912
                                                         1.453920      -2.120465
                                                         0.614053       0.390909
                                                         0.232656       0.216756
                                                         0.074788      -0.026584
                          1       4    4dy2              2.521825       3.008522
                                                         1.453920      -1.224251
                                                         0.614053       0.225691
                                                         0.232656       0.125144
                                                         0.074788      -0.015348
                          1       4    4dyz              2.521825       5.210912
                                                         1.453920      -2.120465
                                                         0.614053       0.390909
                                                         0.232656       0.216756
                                                         0.074788      -0.026584
                          1       4    4dz2              2.521825       3.008522
                                                         1.453920      -1.224251
                                                         0.614053       0.225691
                                                         0.232656       0.125144
                                                         0.074788      -0.015348

                          1       5    5dx2              2.521825       0.698026
                                                         1.453920      -1.511486
                                                         0.614053      -0.335394
                                                         0.232656      -0.025564
                                                         0.074788      -0.002699
                          1       5    5dxy              2.521825       1.209017
                                                         1.453920      -2.617970
                                                         0.614053      -0.580920
                                                         0.232656      -0.044277
                                                         0.074788      -0.004674
                          1       5    5dxz              2.521825       1.209017
                                                         1.453920      -2.617970
                                                         0.614053      -0.580920
                                                         0.232656      -0.044277
                                                         0.074788      -0.004674
                          1       5    5dy2              2.521825       0.698026
                                                         1.453920      -1.511486
                                                         0.614053      -0.335394
                                                         0.232656      -0.025564
                                                         0.074788      -0.002699
                          1       5    5dyz              2.521825       1.209017
                                                         1.453920      -2.617970
                                                         0.614053      -0.580920
                                                         0.232656      -0.044277
                                                         0.074788      -0.004674
                          1       5    5dz2              2.521825       0.698026
                                                         1.453920      -1.511486
                                                         0.614053      -0.335394
                                                         0.232656      -0.025564
                                                         0.074788      -0.002699

                          1       6    6dx2              2.521825       0.831079
                                                         1.453920      -0.709226
                                                         0.614053      -0.137351
                                                         0.232656       0.068642
                                                         0.074788       0.011745
                          1       6    6dxy              2.521825       1.439472
                                                         1.453920      -1.228415
                                                         0.614053      -0.237899
                                                         0.232656       0.118891
                                                         0.074788       0.020343
                          1       6    6dxz              2.521825       1.439472
                                                         1.453920      -1.228415
                                                         0.614053      -0.237899
                                                         0.232656       0.118891
                                                         0.074788       0.020343
                          1       6    6dy2              2.521825       0.831079
                                                         1.453920      -0.709226
                                                         0.614053      -0.137351
                                                         0.232656       0.068642
                                                         0.074788       0.011745
                          1       6    6dyz              2.521825       1.439472
                                                         1.453920      -1.228415
                                                         0.614053      -0.237899
                                                         0.232656       0.118891
                                                         0.074788       0.020343
                          1       6    6dz2              2.521825       0.831079
                                                         1.453920      -0.709226
                                                         0.614053      -0.137351
                                                         0.232656       0.068642
                                                         0.074788       0.011745

     GTH Potential information for                                   GTH-PBE-q10

       Description:                       Goedecker-Teter-Hutter pseudopotential
                                           Goedecker et al., PRB 54, 1703 (1996)
                                          Hartwigsen et al., PRB 58, 3641 (1998)
                                                      Krack, TCA 114, 145 (2005)

       Gaussian exponent of the core charge distribution:               1.317676
       Electronic configuration (s p d ...):                           1   0   9

       Parameters of the local part of the GTH pseudopotential:

                          rloc        C1          C2          C3          C4
                        0.616000   11.313635

       Parameters of the non-local part of the GTH pseudopotential:

                   l      r(l)      h(i,j,l)

                   0    0.550904    4.733491   -1.784594
                                   -1.784594    2.303901
                   1    0.674138    2.534798   -1.778066
                                   -1.778066    2.103836
                   2    0.457392   -7.264011    2.558665
                                    2.558665   -2.901253

  2. Atomic kind: O                                     Number of atoms:       1

     Orbital Basis Set                                        DZVP-MOLOPT-SR-GTH

       Number of orbital shell sets:                                           1
       Number of orbital shells:                                               5
       Number of primitive Cartesian functions:                                5
       Number of Cartesian basis functions:                                   14
       Number of spherical basis functions:                                   13
       Norm type:                                                              2

       Normalised Cartesian orbitals:

                        Set   Shell   Orbital            Exponent    Coefficient

                          1       1    2s               10.389228       0.396646
                                                         3.849621       0.208811
                                                         1.388401      -0.301641
                                                         0.496955      -0.274061
                                                         0.162492      -0.033677

                          1       2    3s               10.389228       0.303673
                                                         3.849621       0.240943
                                                         1.388401      -0.313066
                                                         0.496955      -0.043055
                                                         0.162492       0.213991

                          1       3    3px              10.389228      -1.530415
                                                         3.849621      -1.371928
                                                         1.388401      -0.761951
                                                         0.496955      -0.253695
                                                         0.162492      -0.035541
                          1       3    3py              10.389228      -1.530415
                                                         3.849621      -1.371928
                                                         1.388401      -0.761951
                                                         0.496955      -0.253695
                                                         0.162492      -0.035541
                          1       3    3pz              10.389228      -1.530415
                                                         3.849621      -1.371928
                                                         1.388401      -0.761951
                                                         0.496955      -0.253695
                                                         0.162492      -0.035541

                          1       4    4px              10.389228      -0.565392
                                                         3.849621      -0.038231
                                                         1.388401      -0.382373
                                                         0.496955       0.179070
                                                         0.162492       0.122714
                          1       4    4py              10.389228      -0.565392
                                                         3.849621      -0.038231
                                                         1.388401      -0.382373
                                                         0.496955       0.179070
                                                         0.162492       0.122714
                          1       4    4pz              10.389228      -0.565392
                                                         3.849621      -0.038231
                                                         1.388401      -0.382373
                                                         0.496955       0.179070
                                                         0.162492       0.122714

                          1       5    4dx2             10.389228       1.867377
                                                         3.849621       0.670994
                                                         1.388401       1.353441
                                                         0.496955       0.273538
                                                         0.162492       0.006620
                          1       5    4dxy             10.389228       3.234392
                                                         3.849621       1.162195
                                                         1.388401       2.344229
                                                         0.496955       0.473781
                                                         0.162492       0.011466
                          1       5    4dxz             10.389228       3.234392
                                                         3.849621       1.162195
                                                         1.388401       2.344229
                                                         0.496955       0.473781
                                                         0.162492       0.011466
                          1       5    4dy2             10.389228       1.867377
                                                         3.849621       0.670994
                                                         1.388401       1.353441
                                                         0.496955       0.273538
                                                         0.162492       0.006620
                          1       5    4dyz             10.389228       3.234392
                                                         3.849621       1.162195
                                                         1.388401       2.344229
                                                         0.496955       0.473781
                                                         0.162492       0.011466
                          1       5    4dz2             10.389228       1.867377
                                                         3.849621       0.670994
                                                         1.388401       1.353441
                                                         0.496955       0.273538
                                                         0.162492       0.006620

     GTH Potential information for                                    GTH-PBE-q6

       Description:                       Goedecker-Teter-Hutter pseudopotential
                                           Goedecker et al., PRB 54, 1703 (1996)
                                          Hartwigsen et al., PRB 58, 3641 (1998)
                                                      Krack, TCA 114, 145 (2005)

       Gaussian exponent of the core charge distribution:               8.360253
       Electronic configuration (s p d ...):                               2   4

       Parameters of the local part of the GTH pseudopotential:

                          rloc        C1          C2          C3          C4
                        0.244554  -16.667215    2.487311

       Parameters of the non-local part of the GTH pseudopotential:

                   l      r(l)      h(i,j,l)

                   0    0.220956   18.337458
                   1    0.211332

  3. Atomic kind: H                                     Number of atoms:       2

     Orbital Basis Set                                        DZVP-MOLOPT-SR-GTH

       Number of orbital shell sets:                                           1
       Number of orbital shells:                                               3
       Number of primitive Cartesian functions:                                5
       Number of Cartesian basis functions:                                    5
       Number of spherical basis functions:                                    5
       Norm type:                                                              2

       Normalised Cartesian orbitals:

                        Set   Shell   Orbital            Exponent    Coefficient

                          1       1    2s               10.068468      -0.133023
                                                         2.680223      -0.177618
                                                         0.791502      -0.258419
                                                         0.239116      -0.107525
                                                         0.082193      -0.014019

                          1       2    3s               10.068468       0.344673
                                                         2.680223       1.819821
                                                         0.791502      -0.999069
                                                         0.239116       0.017430
                                                         0.082193       0.082660

                          1       3    3px              10.068468       0.155326
                                                         2.680223       0.367157
                                                         0.791502       0.311480
                                                         0.239116       0.080105
                                                         0.082193       0.033440
                          1       3    3py              10.068468       0.155326
                                                         2.680223       0.367157
                                                         0.791502       0.311480
                                                         0.239116       0.080105
                                                         0.082193       0.033440
                          1       3    3pz              10.068468       0.155326
                                                         2.680223       0.367157
                                                         0.791502       0.311480
                                                         0.239116       0.080105
                                                         0.082193       0.033440

     GTH Potential information for                                    GTH-PBE-q1

       Description:                       Goedecker-Teter-Hutter pseudopotential
                                           Goedecker et al., PRB 54, 1703 (1996)
                                          Hartwigsen et al., PRB 58, 3641 (1998)
                                                      Krack, TCA 114, 145 (2005)

       Gaussian exponent of the core charge distribution:              12.500000
       Electronic configuration (s p d ...):                                   1

       Parameters of the local part of the GTH pseudopotential:

                          rloc        C1          C2          C3          C4
                        0.200000   -4.178900    0.724463


 MOLECULE KIND INFORMATION


 All atoms are their own molecule, skipping detailed information


 TOTAL NUMBERS AND MAXIMUM NUMBERS

  Total number of            - Atomic kinds:                                   3
                             - Atoms:                                         99
                             - Shell sets:                                    99
                             - Shells:                                       587
                             - Primitive Cartesian functions:                495
                             - Cartesian basis functions:                   2232
                             - Spherical basis functions:                   1943

  Maximum angular momentum of- Orbital basis functions:                        2
                             - Local part of the GTH pseudopotential:          2
                             - Non-local part of the GTH pseudopotential:      4


 MODULE QUICKSTEP:  ATOMIC COORDINATES IN angstrom

  Atom  Kind  Element       X           Y           Z          Z(eff)       Mass

       1     1 Pt  78    1.405728    0.811598   15.000000     10.00     195.0840
       2     1 Pt  78    4.217185    0.811598   15.000000     10.00     195.0840
       3     1 Pt  78    7.028641    0.811598   15.000000     10.00     195.0840
       4     1 Pt  78    9.840098    0.811598   15.000000     10.00     195.0840
       5     1 Pt  78    0.000000    3.246390   15.000000     10.00     195.0840
       6     1 Pt  78    2.811457    3.246390   15.000000     10.00     195.0840
       7     1 Pt  78    5.622913    3.246390   15.000000     10.00     195.0840
       8     1 Pt  78    8.434370    3.246390   15.000000     10.00     195.0840
       9     1 Pt  78    1.405728    5.681183   15.000000     10.00     195.0840
      10     1 Pt  78    4.217185    5.681183   15.000000     10.00     195.0840
      11     1 Pt  78    7.028641    5.681183   15.000000     10.00     195.0840
      12     1 Pt  78    9.840098    5.681183   15.000000     10.00     195.0840
      13     1 Pt  78    0.000000    8.115976   15.000000     10.00     195.0840
      14     1 Pt  78    2.811457    8.115976   15.000000     10.00     195.0840
      15     1 Pt  78    5.622913    8.115976   15.000000     10.00     195.0840
      16     1 Pt  78    8.434370    8.115976   15.000000     10.00     195.0840
      17     1 Pt  78    0.000000    1.623195   17.295545     10.00     195.0840
      18     1 Pt  78    2.811457    1.623195   17.295545     10.00     195.0840
      19     1 Pt  78    5.622913    1.623195   17.295545     10.00     195.0840
      20     1 Pt  78    8.434370    1.623195   17.295545     10.00     195.0840
      21     1 Pt  78    1.405728    4.057988   17.295545     10.00     195.0840
      22     1 Pt  78    4.217185    4.057988   17.295545     10.00     195.0840
      23     1 Pt  78    7.028641    4.057988   17.295545     10.00     195.0840
      24     1 Pt  78    9.840098    4.057988   17.295545     10.00     195.0840
      25     1 Pt  78    0.000000    6.492781   17.295545     10.00     195.0840
      26     1 Pt  78    2.811457    6.492781   17.295545     10.00     195.0840
      27     1 Pt  78    5.622913    6.492781   17.295545     10.00     195.0840
      28     1 Pt  78    8.434370    6.492781   17.295545     10.00     195.0840
      29     1 Pt  78    1.405728    8.927574   17.295545     10.00     195.0840
      30     1 Pt  78    4.217185    8.927574   17.295545     10.00     195.0840
      31     1 Pt  78    7.028641    8.927574   17.295545     10.00     195.0840
      32     1 Pt  78    9.840098    8.927574   17.295545     10.00     195.0840
      33     1 Pt  78    0.000000    0.000000   19.591089     10.00     195.0840
      34     1 Pt  78    2.811457    0.000000   19.591089     10.00     195.0840
      35     1 Pt  78    5.622913    0.000000   19.591089     10.00     195.0840
      36     1 Pt  78    8.434370    0.000000   19.591089     10.00     195.0840
      37     1 Pt  78    1.405728    2.434793   19.591089     10.00     195.0840
      38     1 Pt  78    4.217185    2.434793   19.591089     10.00     195.0840
      39     1 Pt  78    7.028641    2.434793   19.591089     10.00     195.0840
      40     1 Pt  78    9.840098    2.434793   19.591089     10.00     195.0840
      41     1 Pt  78    0.000000    4.869586   19.591089     10.00     195.0840
      42     1 Pt  78    2.811457    4.869586   19.591089     10.00     195.0840
      43     1 Pt  78    5.622913    4.869586   19.591089     10.00     195.0840
      44     1 Pt  78    8.434370    4.869586   19.591089     10.00     195.0840
      45     1 Pt  78    1.405728    7.304378   19.591089     10.00     195.0840
      46     1 Pt  78    4.217185    7.304378   19.591089     10.00     195.0840
      47     1 Pt  78    7.028641    7.304378   19.591089     10.00     195.0840
      48     1 Pt  78    9.840098    7.304378   19.591089     10.00     195.0840
      49     1 Pt  78    1.405728    0.811598   21.886634     10.00     195.0840
      50     1 Pt  78    4.217185    0.811598   21.886634     10.00     195.0840
      51     1 Pt  78    7.028641    0.811598   21.886634     10.00     195.0840
      52     1 Pt  78    9.840098    0.811598   21.886634     10.00     195.0840
      53     1 Pt  78    0.000000    3.246390   21.886634     10.00     195.0840
      54     1 Pt  78    2.811457    3.246390   21.886634     10.00     195.0840
      55     1 Pt  78    5.622913    3.246390   21.886634     10.00     195.0840
      56     1 Pt  78    8.434370    3.246390   21.886634     10.00     195.0840
      57     1 Pt  78    1.405728    5.681183   21.886634     10.00     195.0840
      58     1 Pt  78    4.217185    5.681183   21.886634     10.00     195.0840
      59     1 Pt  78    7.028641    5.681183   21.886634     10.00     195.0840
      60     1 Pt  78    9.840098    5.681183   21.886634     10.00     195.0840
      61     1 Pt  78    0.000000    8.115976   21.886634     10.00     195.0840
      62     1 Pt  78    2.811457    8.115976   21.886634     10.00     195.0840
      63     1 Pt  78    5.622913    8.115976   21.886634     10.00     195.0840
      64     1 Pt  78    8.434370    8.115976   21.886634     10.00     195.0840
      65     1 Pt  78    0.000000    1.623195   24.182179     10.00     195.0840
      66     1 Pt  78    2.811457    1.623195   24.182179     10.00     195.0840
      67     1 Pt  78    5.622913    1.623195   24.182179     10.00     195.0840
      68     1 Pt  78    8.434370    1.623195   24.182179     10.00     195.0840
      69     1 Pt  78    1.405728    4.057988   24.182179     10.00     195.0840
      70     1 Pt  78    4.217185    4.057988   24.182179     10.00     195.0840
      71     1 Pt  78    7.028641    4.057988   24.182179     10.00     195.0840
      72     1 Pt  78    9.840098    4.057988   24.182179     10.00     195.0840
      73     1 Pt  78    0.000000    6.492781   24.182179     10.00     195.0840
      74     1 Pt  78    2.811457    6.492781   24.182179     10.00     195.0840
      75     1 Pt  78    5.622913    6.492781   24.182179     10.00     195.0840
      76     1 Pt  78    8.434370    6.492781   24.182179     10.00     195.0840
      77     1 Pt  78    1.405728    8.927574   24.182179     10.00     195.0840
      78     1 Pt  78    4.217185    8.927574   24.182179     10.00     195.0840
      79     1 Pt  78    7.028641    8.927574   24.182179     10.00     195.0840
      80     1 Pt  78    9.840098    8.927574   24.182179     10.00     195.0840
      81     1 Pt  78    0.000000    0.000000   26.477723     10.00     195.0840
      82     1 Pt  78    2.811457    0.000000   26.477723     10.00     195.0840
      83     1 Pt  78    5.622913    0.000000   26.477723     10.00     195.0840
      84     1 Pt  78    8.434370    0.000000   26.477723     10.00     195.0840
      85     1 Pt  78    1.405728    2.434793   26.477723     10.00     195.0840
      86     1 Pt  78    4.217185    2.434793   26.477723     10.00     195.0840
      87     1 Pt  78    7.028641    2.434793   26.477723     10.00     195.0840
      88     1 Pt  78    9.840098    2.434793   26.477723     10.00     195.0840
      89     1 Pt  78    0.000000    4.869586   26.477723     10.00     195.0840
      90     1 Pt  78    2.811457    4.869586   26.477723     10.00     195.0840
      91     1 Pt  78    5.622913    4.869586   26.477723     10.00     195.0840
      92     1 Pt  78    8.434370    4.869586   26.477723     10.00     195.0840
      93     1 Pt  78    1.405728    7.304378   26.477723     10.00     195.0840
      94     1 Pt  78    4.217185    7.304378   26.477723     10.00     195.0840
      95     1 Pt  78    7.028641    7.304378   26.477723     10.00     195.0840
      96     1 Pt  78    9.840098    7.304378   26.477723     10.00     195.0840
      97     2 O    8    5.622913    4.869586   32.977723      6.00      15.9994
      98     3 H    1    5.062566    5.632825   33.181673      1.00       1.0079
      99     3 H    1    5.062566    4.106347   33.181673      1.00       1.0079




 SCF PARAMETERS         Density guess:                                   RESTART
                        --------------------------------------------------------
                        max_scf:                                             500
                        max_scf_history:                                       0
                        max_diis:                                              4
                        --------------------------------------------------------
                        eps_scf:                                        1.00E-06
                        eps_scf_history:                                0.00E+00
                        eps_diis:                                       1.00E-01
                        eps_eigval:                                     1.00E-05
                        --------------------------------------------------------
                        level_shift [a.u.]:                                 0.00
                        added MOs                                       500    0
                        --------------------------------------------------------
                        Mixing method:                            BROYDEN_MIXING
                                                charge density mixing in g-space
                        --------------------------------------------------------
                        Smear method:                                FERMI_DIRAC
                        Electronic temperature [K]:                        300.0
                        Electronic temperature [a.u.]:                  9.50E-04
                        Accuracy threshold:                             1.00E-10
                        --------------------------------------------------------
                        No outer SCF

 PW_GRID| Information for grid number                                          1
 PW_GRID| Grid distributed over                                    32 processors
 PW_GRID| Real space group dimensions                                    32    1
 PW_GRID| the grid is blocked:                                                NO
 PW_GRID| Cutoff [a.u.]                                                    200.0
 PW_GRID| spherical cutoff:                                                   NO
 PW_GRID|   Bounds   1            -67      67                Points:         135
 PW_GRID|   Bounds   2            -60      59                Points:         120
 PW_GRID|   Bounds   3           -250     249                Points:         500
 PW_GRID| Volume element (a.u.^3)  0.3785E-02     Volume (a.u.^3)     30656.6653
 PW_GRID| Grid span                                                    FULLSPACE
 PW_GRID|   Distribution                         Average         Max         Min
 PW_GRID|   G-Vectors                           253125.0      253125      253125
 PW_GRID|   G-Rays                                1875.0        1875        1875
 PW_GRID|   Real Space Points                   253125.0      300000      240000

 PW_GRID| Information for grid number                                          2
 PW_GRID| Number of the reference grid                                         1
 PW_GRID| Grid distributed over                                    32 processors
 PW_GRID| Real space group dimensions                                    32    1
 PW_GRID| the grid is blocked:                                                NO
 PW_GRID| Cutoff [a.u.]                                                     66.7
 PW_GRID| spherical cutoff:                                                   NO
 PW_GRID|   Bounds   1            -40      39                Points:          80
 PW_GRID|   Bounds   2            -36      35                Points:          72
 PW_GRID|   Bounds   3           -150     149                Points:         300
 PW_GRID| Volume element (a.u.^3)  0.1774E-01     Volume (a.u.^3)     30656.6653
 PW_GRID| Grid span                                                    FULLSPACE
 PW_GRID|   Distribution                         Average         Max         Min
 PW_GRID|   G-Vectors                            54000.0       54640       53520
 PW_GRID|   G-Rays                                 675.0         683         669
 PW_GRID|   Real Space Points                    54000.0       64800       43200

 PW_GRID| Information for grid number                                          3
 PW_GRID| Number of the reference grid                                         1
 PW_GRID| Grid distributed over                                    32 processors
 PW_GRID| Real space group dimensions                                    32    1
 PW_GRID| the grid is blocked:                                                NO
 PW_GRID| Cutoff [a.u.]                                                     22.2
 PW_GRID| spherical cutoff:                                                   NO
 PW_GRID|   Bounds   1            -22      22                Points:          45
 PW_GRID|   Bounds   2            -20      19                Points:          40
 PW_GRID|   Bounds   3            -90      89                Points:         180
 PW_GRID| Volume element (a.u.^3)  0.9462E-01     Volume (a.u.^3)     30656.6653
 PW_GRID| Grid span                                                    FULLSPACE
 PW_GRID|   Distribution                         Average         Max         Min
 PW_GRID|   G-Vectors                            10125.0       10260       10035
 PW_GRID|   G-Rays                                 225.0         228         223
 PW_GRID|   Real Space Points                    10125.0       14400        7200

 PW_GRID| Information for grid number                                          4
 PW_GRID| Number of the reference grid                                         1
 PW_GRID| Grid distributed over                                    32 processors
 PW_GRID| Real space group dimensions                                     4    8
 PW_GRID| the grid is blocked:                                                NO
 PW_GRID| Cutoff [a.u.]                                                      7.4
 PW_GRID| spherical cutoff:                                                   NO
 PW_GRID|   Bounds   1            -13      13                Points:          27
 PW_GRID|   Bounds   2            -12      11                Points:          24
 PW_GRID|   Bounds   3            -50      49                Points:         100
 PW_GRID| Volume element (a.u.^3)  0.4731         Volume (a.u.^3)     30656.6653
 PW_GRID| Grid span                                                    FULLSPACE
 PW_GRID|   Distribution                         Average         Max         Min
 PW_GRID|   G-Vectors                             2025.0        2133        1890
 PW_GRID|   G-Rays                                  75.0          79          70
 PW_GRID|   Real Space Points                     2025.0        2100        1800

 POISSON| Solver                                          IMPLICIT (GENERALIZED)
 POISSON| Boundary Condition                                PERIODIC & DIRICHLET
 POISSON| Maximum number of iterations                                        30
 POISSON| Convergence threshold                                         1.00E-08
 POISSON| Dielectric Constant                                              80.00
 POISSON| Relaxation parameter                                          1.00E+00

 RS_GRID| Information for grid number                                          1
 RS_GRID|   Bounds   1            -67      67                Points:         135
 RS_GRID|   Bounds   2            -60      59                Points:         120
 RS_GRID|   Bounds   3           -250     249                Points:         500
 RS_GRID| Real space distribution over                                 32 groups
 RS_GRID| Real space distribution along direction                              3
 RS_GRID| Border size                                                         34
 RS_GRID|   Distribution                         Average         Max         Min
 RS_GRID|   Planes                                  83.6          84          83

 RS_GRID| Information for grid number                                          2
 RS_GRID|   Bounds   1            -40      39                Points:          80
 RS_GRID|   Bounds   2            -36      35                Points:          72
 RS_GRID|   Bounds   3           -150     149                Points:         300
 RS_GRID| Real space distribution over                                 32 groups
 RS_GRID| Real space distribution along direction                              3
 RS_GRID| Border size                                                         24
 RS_GRID|   Distribution                         Average         Max         Min
 RS_GRID|   Planes                                  57.4          58          57

 RS_GRID| Information for grid number                                          3
 RS_GRID|   Bounds   1            -22      22                Points:          45
 RS_GRID|   Bounds   2            -20      19                Points:          40
 RS_GRID|   Bounds   3            -90      89                Points:         180
 RS_GRID| Real space fully replicated
 RS_GRID| Group size                                                           1

 RS_GRID| Information for grid number                                          4
 RS_GRID|   Bounds   1            -13      13                Points:          27
 RS_GRID|   Bounds   2            -12      11                Points:          24
 RS_GRID|   Bounds   3            -50      49                Points:         100
 RS_GRID| Real space fully replicated
 RS_GRID| Group size                                                           1

 Number of electrons:                                                        968
 Number of occupied orbitals:                                                484
 Number of molecular orbitals:                                               984

 Number of orbital functions:                                               1943
 Number of independent orbital functions:                                   1943

 Extrapolation method: initial_guess


 SCF WAVEFUNCTION OPTIMIZATION

  Step     Update method      Time    Convergence         Total energy    Change
  ------------------------------------------------------------------------------

  POISSON| IMPLICIT (GENERALIZED) SOLVER ---------------------------------------
  POISSON| Preparing Dirichlet regions ...
  POISSON| Dirichlet region    1
  POISSON|     type : axis-aligned planar
  POISSON|     applied potential :   0.0000E+00  [Eh/e]
  POISSON| Dirichlet region    2
  POISSON|     type : axis-aligned planar
  POISSON|     applied potential :   0.1837E+00  [Eh/e]
  POISSON| ... Done. 
  ------------------------------------------------------------------------------

  POISSON|   iter        pres error      nabs error        E_hartree    delta E
  POISSON|      1        0.6114E-02      0.5852E-01     901.5302284719  0.90E+03
  POISSON|      2        0.1012E-14      0.6114E-02     901.5757709086  0.46E-01
  POISSON| Poisson solver converged in 2 iterations.
     1 NoMix/Diag. 0.30E+00    2.5     0.01025470     -2538.0641518912 -2.54E+03
  POISSON|   iter        pres error      nabs error        E_hartree    delta E
  POISSON|      1        0.6116E-02      0.5852E-01     901.5302900113 -0.45E-01
  POISSON|      2        0.1170E-14      0.6116E-02     901.5758479184  0.46E-01
  POISSON| Poisson solver converged in 2 iterations.
     2 Broy./Diag. 0.30E+00    2.7     0.00445590     -2538.0973267711 -3.32E-02
  POISSON|   iter        pres error      nabs error        E_hartree    delta E
  POISSON|      1        0.3176E-05      0.9800E-05     901.5757929929 -0.55E-04
  POISSON|      2        0.4670E-17      0.3176E-05     901.5757693343 -0.24E-04
  POISSON| Poisson solver converged in 2 iterations.
     3 Broy./Diag. 0.30E+00    2.7     0.00460097     -2538.0948785054  2.45E-03
  POISSON|   iter        pres error      nabs error        E_hartree    delta E
  POISSON|      1        0.1443E-05      0.4604E-05     901.5757553864 -0.14E-04
  POISSON|      2        0.7866E-18      0.1443E-05     901.5757661388  0.11E-04
  POISSON| Poisson solver converged in 2 iterations.
     4 Broy./Diag. 0.30E+00    2.6     0.00308020     -2538.0973383347 -2.46E-03
  POISSON|   iter        pres error      nabs error        E_hartree    delta E
  POISSON|      1        0.1418E-06      0.7683E-06     901.5757947480  0.29E-04
  POISSON|      2        0.4655E-17      0.1418E-06     901.5757936915 -0.11E-05
  POISSON| Poisson solver converged in 2 iterations.
     5 Broy./Diag. 0.30E+00    2.7     0.00061084     -2538.0972056715  1.33E-04
  POISSON|   iter        pres error      nabs error        E_hartree    delta E
  POISSON|      1        0.9408E-08      0.3744E-06     901.5757436655 -0.50E-04
  POISSON| Poisson solver converged in 1 iteration. 
     6 Broy./Diag. 0.30E+00    2.3     0.00028364     -2538.0961221791  1.08E-03
  POISSON|   iter        pres error      nabs error        E_hartree    delta E
  POISSON|      1        0.5104E-08      0.3605E-06     901.5757882215  0.45E-04
  POISSON| Poisson solver converged in 1 iteration. 
     7 Broy./Diag. 0.30E+00    2.3     0.00014693     -2538.0974669030 -1.34E-03
  POISSON|   iter        pres error      nabs error        E_hartree    delta E
  POISSON|      1        0.8870E-08      0.5031E-06     901.5756838036 -0.10E-03
  POISSON| Poisson solver converged in 1 iteration. 
     8 Broy./Diag. 0.30E+00    2.3     0.00013468     -2538.0957309127  1.74E-03
  POISSON|   iter        pres error      nabs error        E_hartree    delta E
  POISSON|      1        0.7215E-08      0.4238E-06     901.5757345915  0.51E-04
  POISSON| Poisson solver converged in 1 iteration. 
     9 Broy./Diag. 0.30E+00    2.3     0.00011091     -2538.0985834920 -2.85E-03
  POISSON|   iter        pres error      nabs error        E_hartree    delta E
  POISSON|      1        0.8767E-08      0.2824E-06     901.5757133897 -0.21E-04
  POISSON| Poisson solver converged in 1 iteration. 
    10 Broy./Diag. 0.30E+00    2.3     0.00003479     -2538.0964416025  2.14E-03
  POISSON|   iter        pres error      nabs error        E_hartree    delta E
  POISSON|      1        0.1537E-07      0.1935E-06     901.5757088546 -0.45E-05
  POISSON|      2        0.5950E-17      0.1537E-07     901.5757087401 -0.11E-06
  POISSON| Poisson solver converged in 2 iterations.
    11 Broy./Diag. 0.30E+00    2.7     0.00002050     -2538.0968159519 -3.74E-04
  POISSON|   iter        pres error      nabs error        E_hartree    delta E
  POISSON|      1        0.1912E-07      0.2514E-06     901.5757015342 -0.72E-05
  POISSON|      2        0.1177E-17      0.1912E-07     901.5757013918 -0.14E-06
  POISSON| Poisson solver converged in 2 iterations.
    12 Broy./Diag. 0.30E+00    2.7     0.00002201     -2538.0967708361  4.51E-05
  POISSON|   iter        pres error      nabs error        E_hartree    delta E
  POISSON|      1        0.3847E-08      0.1645E-06     901.5756989018 -0.25E-05
  POISSON| Poisson solver converged in 1 iteration. 
    13 Broy./Diag. 0.30E+00    2.3     0.00001998     -2538.0967810708 -1.02E-05
  POISSON|   iter        pres error      nabs error        E_hartree    delta E
  POISSON|      1        0.2225E-07      0.7663E-07     901.5756977740 -0.11E-05
  POISSON|      2        0.7234E-17      0.2225E-07     901.5756976083 -0.17E-06
  POISSON| Poisson solver converged in 2 iterations.
    14 Broy./Diag. 0.30E+00    2.7     0.00002247     -2538.0967653802  1.57E-05
  POISSON|   iter        pres error      nabs error        E_hartree    delta E
  POISSON|      1        0.8178E-09      0.1004E-06     901.5756957093 -0.19E-05
  POISSON| Poisson solver converged in 1 iteration. 
    15 Broy./Diag. 0.30E+00    2.3     0.00002615     -2538.0967721030 -6.72E-06
  POISSON|   iter        pres error      nabs error        E_hartree    delta E
  POISSON|      1        0.1512E-07      0.1401E-06     901.5756964451  0.74E-06
  POISSON|      2        0.7580E-17      0.1512E-07     901.5756963325 -0.11E-06
  POISSON| Poisson solver converged in 2 iterations.
    16 Broy./Diag. 0.30E+00    2.7     0.00001742     -2538.0967828320 -1.07E-05
  POISSON|   iter        pres error      nabs error        E_hartree    delta E
  POISSON|      1        0.1443E-07      0.1247E-06     901.5756922454 -0.41E-05
  POISSON|      2        0.2400E-17      0.1443E-07     901.5756921379 -0.11E-06
  POISSON| Poisson solver converged in 2 iterations.
    17 Broy./Diag. 0.30E+00    2.7     0.00001707     -2538.0967258633  5.70E-05
  POISSON|   iter        pres error      nabs error        E_hartree    delta E
  POISSON|      1        0.1041E-07      0.7817E-07     901.5756963960  0.43E-05
  POISSON|      2        0.6765E-17      0.1041E-07     901.5756963185 -0.78E-07
  POISSON| Poisson solver converged in 2 iterations.
    18 Broy./Diag. 0.30E+00    2.7     0.00000992     -2538.0968320017 -1.06E-04
  POISSON|   iter        pres error      nabs error        E_hartree    delta E
  POISSON|      1        0.6851E-08      0.5561E-07     901.5756905106 -0.58E-05
  POISSON| Poisson solver converged in 1 iteration. 
    19 Broy./Diag. 0.30E+00    2.3     0.00000860     -2538.0966619081  1.70E-04
  POISSON|   iter        pres error      nabs error        E_hartree    delta E
  POISSON|      1        0.7714E-08      0.5997E-07     901.5756927019  0.22E-05
  POISSON| Poisson solver converged in 1 iteration. 
    20 Broy./Diag. 0.30E+00    2.3     0.00000576     -2538.0968291582 -1.67E-04
  POISSON|   iter        pres error      nabs error        E_hartree    delta E
  POISSON|      1        0.1110E-07      0.8318E-07     901.5756912427 -0.15E-05
  POISSON|      2        0.6332E-17      0.1110E-07     901.5756911600 -0.83E-07
  POISSON| Poisson solver converged in 2 iterations.
    21 Broy./Diag. 0.30E+00    2.7     0.00000566     -2538.0967353753  9.38E-05
  POISSON|   iter        pres error      nabs error        E_hartree    delta E
  POISSON|      1        0.1269E-07      0.5739E-07     901.5756906823 -0.48E-06
  POISSON|      2        0.5192E-18      0.1269E-07     901.5756905878 -0.95E-07
  POISSON| Poisson solver converged in 2 iterations.
    22 Broy./Diag. 0.30E+00    2.7     0.00000343     -2538.0967519943 -1.66E-05
  POISSON|   iter        pres error      nabs error        E_hartree    delta E
  POISSON|      1        0.1100E-07      0.5083E-07     901.5756903709 -0.22E-06
  POISSON|      2        0.2189E-17      0.1100E-07     901.5756902890 -0.82E-07
  POISSON| Poisson solver converged in 2 iterations.
    23 Broy./Diag. 0.30E+00    2.7     0.00000382     -2538.0967498519  2.14E-06
  POISSON|   iter        pres error      nabs error        E_hartree    delta E
  POISSON|      1        0.3553E-08      0.2620E-07     901.5756902954  0.65E-08
  POISSON| Poisson solver converged in 1 iteration. 
    24 Broy./Diag. 0.30E+00    2.3     0.00000258     -2538.0967508472 -9.95E-07
  POISSON|   iter        pres error      nabs error        E_hartree    delta E
  POISSON|      1        0.1041E-07      0.5264E-07     901.5756914912  0.12E-05
  POISSON|      2        0.2155E-17      0.1041E-07     901.5756914137 -0.78E-07
  POISSON| Poisson solver converged in 2 iterations.
    25 Broy./Diag. 0.30E+00    2.7     0.00000347     -2538.0967516389 -7.92E-07
  POISSON|   iter        pres error      nabs error        E_hartree    delta E
  POISSON|      1        0.5667E-08      0.2314E-07     901.5756910024 -0.41E-06
  POISSON| Poisson solver converged in 1 iteration. 
    26 Broy./Diag. 0.30E+00    2.3     0.00000413     -2538.0967440440  7.59E-06
  POISSON|   iter        pres error      nabs error        E_hartree    delta E
  POISSON|      1        0.6942E-08      0.3056E-07     901.5756918538  0.85E-06
  POISSON| Poisson solver converged in 1 iteration. 
    27 Broy./Diag. 0.30E+00    2.3     0.00000217     -2538.0967528732 -8.83E-06
  POISSON|   iter        pres error      nabs error        E_hartree    delta E
  POISSON|      1        0.3770E-08      0.1956E-07     901.5756914846 -0.37E-06
  POISSON| Poisson solver converged in 1 iteration. 
    28 Broy./Diag. 0.30E+00    2.3     0.00000187     -2538.0967430981  9.78E-06
  POISSON|   iter        pres error      nabs error        E_hartree    delta E
  POISSON|      1        0.4415E-08      0.1628E-07     901.5756929236  0.14E-05
  POISSON| Poisson solver converged in 1 iteration. 
    29 Broy./Diag. 0.30E+00    2.3     0.00000204     -2538.0967639605 -2.09E-05
  POISSON|   iter        pres error      nabs error        E_hartree    delta E
  POISSON|      1        0.4897E-08      0.2041E-07     901.5756922332 -0.69E-06
  POISSON| Poisson solver converged in 1 iteration. 
    30 Broy./Diag. 0.30E+00    2.3     0.00000182     -2538.0967237543  4.02E-05
  POISSON|   iter        pres error      nabs error        E_hartree    delta E
  POISSON|      1        0.7361E-08      0.2899E-07     901.5756925665  0.33E-06
  POISSON| Poisson solver converged in 1 iteration. 
    31 Broy./Diag. 0.30E+00    2.3     0.00000108     -2538.0967532268 -2.95E-05
  POISSON|   iter        pres error      nabs error        E_hartree    delta E
  POISSON|      1        0.3132E-09      0.9391E-08     901.5756924767 -0.90E-07
  POISSON| Poisson solver converged in 1 iteration. 
    32 Broy./Diag. 0.30E+00    2.3     0.00000235     -2538.0967468275  6.40E-06
  POISSON|   iter        pres error      nabs error        E_hartree    delta E
  POISSON|      1        0.5967E-08      0.2208E-07     901.5756924995  0.23E-07
  POISSON| Poisson solver converged in 1 iteration. 
    33 Broy./Diag. 0.30E+00    2.3     0.00000196     -2538.0967461581  6.69E-07
  POISSON|   iter        pres error      nabs error        E_hartree    delta E
  POISSON|      1        0.2190E-08      0.8054E-08     901.5756924277 -0.72E-07
  POISSON| Poisson solver converged in 1 iteration. 
    34 Broy./Diag. 0.30E+00    2.3     0.00000070     -2538.0967468912 -7.33E-07

  *** SCF run converged in    34 steps ***


  Electronic density on regular grids:       -968.0000000024       -0.0000000024
  Core density on regular grids:              967.9999999998       -0.0000000002
  Total charge density on r-space grids:       -0.0000000026
  Total charge density g-space grids:          -0.0000000026

  Overlap energy of the core charge distribution:               0.00001067490320
  Self energy of the core charge distribution:              -4440.62962420003350
  Core Hamiltonian energy:                                   1439.87188865350959
  Hartree energy:                                             901.57569242772331
  Electric enthalpy:                                          901.48460812398673
  Exchange-correlation energy:                               -436.68022582379700
  Dispersion energy:                                           -2.11084056190154
  Electronic entropic energy:                                  -0.03256375761120
  Fermi energy:                                                -0.28192835617817

  Total energy:                                             -2538.09674689115218

 The electron density is written in cube file format to the file:

 cp2k-ELECTRON_DENSITY-1_0.cube

 !-----------------------------------------------------------------------------!
                     Mulliken Population Analysis

 #  Atom  Element  Kind  Atomic population                           Net charge
       1     Pt       1         10.043429                             -0.043429
       2     Pt       1         10.043423                             -0.043423
       3     Pt       1         10.043422                             -0.043422
       4     Pt       1         10.043426                             -0.043426
       5     Pt       1         10.043419                             -0.043419
       6     Pt       1         10.043421                             -0.043421
       7     Pt       1         10.043435                             -0.043435
       8     Pt       1         10.043434                             -0.043434
       9     Pt       1         10.043414                             -0.043414
      10     Pt       1         10.043437                             -0.043437
      11     Pt       1         10.043447                             -0.043447
      12     Pt       1         10.043425                             -0.043425
      13     Pt       1         10.043429                             -0.043429
      14     Pt       1         10.043425                             -0.043425
      15     Pt       1         10.043418                             -0.043418
      16     Pt       1         10.043425                             -0.043425
      17     Pt       1          9.971949                              0.028051
      18     Pt       1          9.971954                              0.028046
      19     Pt       1          9.971950                              0.028050
      20     Pt       1          9.971952                              0.028048
      21     Pt       1          9.971940                              0.028060
      22     Pt       1          9.971947                              0.028053
      23     Pt       1          9.971947                              0.028053
      24     Pt       1          9.971935                              0.028065
      25     Pt       1          9.971940                              0.028060
      26     Pt       1          9.971946                              0.028054
      27     Pt       1          9.971942                              0.028058
      28     Pt       1          9.971944                              0.028056
      29     Pt       1          9.971950                              0.028050
      30     Pt       1          9.971960                              0.028040
      31     Pt       1          9.971960                              0.028040
      32     Pt       1          9.971947                              0.028053
      33     Pt       1          9.973224                              0.026776
      34     Pt       1          9.973234                              0.026766
      35     Pt       1          9.973246                              0.026754
      36     Pt       1          9.973242                              0.026758
      37     Pt       1          9.973248                              0.026752
      38     Pt       1          9.973243                              0.026757
      39     Pt       1          9.973238                              0.026762
      40     Pt       1          9.973238                              0.026762
      41     Pt       1          9.973243                              0.026757
      42     Pt       1          9.973240                              0.026760
      43     Pt       1          9.973221                              0.026779
      44     Pt       1          9.973226                              0.026774
      45     Pt       1          9.973224                              0.026776
      46     Pt       1          9.973233                              0.026767
      47     Pt       1          9.973236                              0.026764
      48     Pt       1          9.973221                              0.026779
      49     Pt       1          9.973499                              0.026501
      50     Pt       1          9.973489                              0.026511
      51     Pt       1          9.973479                              0.026521
      52     Pt       1          9.973483                              0.026517
      53     Pt       1          9.973475                              0.026525
      54     Pt       1          9.973485                              0.026515
      55     Pt       1          9.973481                              0.026519
      56     Pt       1          9.973481                              0.026519
      57     Pt       1          9.973482                              0.026518
      58     Pt       1          9.973492                              0.026508
      59     Pt       1          9.973490                              0.026510
      60     Pt       1          9.973477                              0.026523
      61     Pt       1          9.973503                              0.026497
      62     Pt       1          9.973504                              0.026496
      63     Pt       1          9.973487                              0.026513
      64     Pt       1          9.973489                              0.026511
      65     Pt       1          9.972151                              0.027849
      66     Pt       1          9.972176                              0.027824
      67     Pt       1          9.972139                              0.027861
      68     Pt       1          9.972143                              0.027857
      69     Pt       1          9.972152                              0.027848
      70     Pt       1          9.972141                              0.027859
      71     Pt       1          9.972090                              0.027910
      72     Pt       1          9.972127                              0.027873
      73     Pt       1          9.972129                              0.027871
      74     Pt       1          9.972144                              0.027856
      75     Pt       1          9.972115                              0.027885
      76     Pt       1          9.972108                              0.027892
      77     Pt       1          9.972154                              0.027846
      78     Pt       1          9.972172                              0.027828
      79     Pt       1          9.972162                              0.027838
      80     Pt       1          9.972139                              0.027861
      81     Pt       1         10.066579                             -0.066579
      82     Pt       1         10.067260                             -0.067260
      83     Pt       1         10.066396                             -0.066396
      84     Pt       1         10.065759                             -0.065759
      85     Pt       1         10.066938                             -0.066938
      86     Pt       1         10.066204                             -0.066204
      87     Pt       1         10.064568                             -0.064568
      88     Pt       1         10.065596                             -0.065596
      89     Pt       1         10.066161                             -0.066161
      90     Pt       1         10.066436                             -0.066436
      91     Pt       1         10.063298                             -0.063298
      92     Pt       1         10.063735                             -0.063735
      93     Pt       1         10.066937                             -0.066937
      94     Pt       1         10.066214                             -0.066214
      95     Pt       1         10.064584                             -0.064584
      96     Pt       1         10.065600                             -0.065600
      97     O        2          6.240370                             -0.240370
      98     H        3          0.879788                              0.120212
      99     H        3          0.879788                              0.120212
 # Total charge                            968.000000                  0.000000

 !-----------------------------------------------------------------------------!

 !-----------------------------------------------------------------------------!
                           Hirshfeld Charges

  #Atom  Element  Kind  Ref Charge     Population                    Net charge
      1       Pt     1      10.000         10.004                        -0.004
      2       Pt     1      10.000         10.004                        -0.004
      3       Pt     1      10.000         10.004                        -0.004
      4       Pt     1      10.000         10.004                        -0.004
      5       Pt     1      10.000         10.004                        -0.004
      6       Pt     1      10.000         10.004                        -0.004
      7       Pt     1      10.000         10.004                        -0.004
      8       Pt     1      10.000         10.004                        -0.004
      9       Pt     1      10.000         10.004                        -0.004
     10       Pt     1      10.000         10.004                        -0.004
     11       Pt     1      10.000         10.004                        -0.004
     12       Pt     1      10.000         10.004                        -0.004
     13       Pt     1      10.000         10.004                        -0.004
     14       Pt     1      10.000         10.004                        -0.004
     15       Pt     1      10.000         10.004                        -0.004
     16       Pt     1      10.000         10.004                        -0.004
     17       Pt     1      10.000          9.987                         0.013
     18       Pt     1      10.000          9.987                         0.013
     19       Pt     1      10.000          9.987                         0.013
     20       Pt     1      10.000          9.987                         0.013
     21       Pt     1      10.000          9.987                         0.013
     22       Pt     1      10.000          9.987                         0.013
     23       Pt     1      10.000          9.987                         0.013
     24       Pt     1      10.000          9.987                         0.013
     25       Pt     1      10.000          9.987                         0.013
     26       Pt     1      10.000          9.987                         0.013
     27       Pt     1      10.000          9.987                         0.013
[...]
     87      1      Pt         -0.00000764     0.00123765     0.01279680
     88      1      Pt          0.00000745     0.00124713     0.01280545
     89      1      Pt          0.00001485     0.00125868     0.01280738
     90      1      Pt         -0.00000350     0.00125849     0.01281043
     91      1      Pt         -0.00001724     0.00125913     0.01282543
     92      1      Pt          0.00000698     0.00125842     0.01279079
     93      1      Pt          0.00000767     0.00126180     0.01281653
     94      1      Pt         -0.00001301     0.00127036     0.01281128
     95      1      Pt         -0.00000631     0.00127580     0.01280541
     96      1      Pt          0.00001062     0.00126702     0.01280320
     97      2      O           0.00174162     0.00000119     0.00374902
     98      3      H          -0.00094590     0.00149129    -0.00159617
     99      3      H          -0.00094587    -0.00149130    -0.00159613
 SUM OF ATOMIC FORCES          -0.00015006     0.00000047     0.00073648     0.00075162

 -------------------------------------------------------------------------------
 -                                                                             -
 -                                DBCSR STATISTICS                             -
 -                                                                             -
 -------------------------------------------------------------------------------
 COUNTER                                    TOTAL       BLAS       SMM       ACC
 flops     5 x    24 x     5                 4800       0.0%    100.0%      0.0%
 flops     5 x    24 x    13                 6240       0.0%    100.0%      0.0%
 flops    13 x    24 x     5                 6240       0.0%    100.0%      0.0%
 flops    13 x    24 x    13                 8112       0.0%    100.0%      0.0%
 flops     5 x    22 x     5                26400       0.0%    100.0%      0.0%
 flops     5 x    22 x    13                34320       0.0%    100.0%      0.0%
 flops    13 x    22 x     5                34320       0.0%    100.0%      0.0%
 flops    13 x    22 x    13                44616       0.0%    100.0%      0.0%
 flops     5 x    13 x    96               449280       0.0%    100.0%      0.0%
 flops    13 x     5 x    96               449280       0.0%    100.0%      0.0%
 flops     5 x     5 x    96               518400       0.0%    100.0%      0.0%
 flops     5 x    13 x   120               561600       0.0%    100.0%      0.0%
 flops    13 x     5 x   120               561600       0.0%    100.0%      0.0%
 flops    20 x    24 x    13               599040       0.0%    100.0%      0.0%
 flops    13 x    24 x    20               599040       0.0%    100.0%      0.0%
 flops     5 x    24 x    20               604800       0.0%    100.0%      0.0%
 flops    20 x    24 x     5               604800       0.0%    100.0%      0.0%
 flops     5 x     5 x   120               648000       0.0%    100.0%      0.0%
 flops     5 x    32 x     5               691200       0.0%    100.0%      0.0%
 flops     5 x    32 x    13               898560       0.0%    100.0%      0.0%
 flops    13 x    32 x     5               898560       0.0%    100.0%      0.0%
 flops    13 x    32 x    13              1168128       0.0%    100.0%      0.0%
 flops    13 x    13 x    96              1168128       0.0%    100.0%      0.0%
 flops    13 x    13 x   120              1460160       0.0%    100.0%      0.0%
 flops    20 x    22 x    13              3294720       0.0%    100.0%      0.0%
 flops    13 x    22 x    20              3294720       0.0%    100.0%      0.0%
 flops     5 x    22 x    20              3326400       0.0%    100.0%      0.0%
 flops    20 x    22 x     5              3326400       0.0%    100.0%      0.0%
 flops     5 x    13 x   128              3594240       0.0%    100.0%      0.0%
 flops    13 x     5 x   128              3594240       0.0%    100.0%      0.0%
 flops     5 x     5 x   128              4147200       0.0%    100.0%      0.0%
 flops    13 x    13 x   128              9345024       0.0%    100.0%      0.0%
 flops    20 x    13 x    96             43130880       0.0%    100.0%      0.0%
 flops    13 x    20 x    96             43130880       0.0%    100.0%      0.0%
 flops     5 x    20 x    96             43545600       0.0%    100.0%      0.0%
 flops    20 x     5 x    96             43545600       0.0%    100.0%      0.0%
 flops    20 x    13 x   120             53913600       0.0%    100.0%      0.0%
 flops    13 x    20 x   120             53913600       0.0%    100.0%      0.0%
 flops     5 x    20 x   120             54432000       0.0%    100.0%      0.0%
 flops    20 x     5 x   120             54432000       0.0%    100.0%      0.0%
 flops    20 x    32 x    13             86261760       0.0%    100.0%      0.0%
 flops    13 x    32 x    20             86261760       0.0%    100.0%      0.0%
 flops    20 x    32 x     5             87091200       0.0%    100.0%      0.0%
 flops     5 x    32 x    20             87091200       0.0%    100.0%      0.0%
 flops    20 x    24 x    20            176947200       0.0%    100.0%      0.0%
 flops    20 x    13 x   128            345047040       0.0%    100.0%      0.0%
 flops    13 x    20 x   128            345047040       0.0%    100.0%      0.0%
 flops     5 x    20 x   128            348364800       0.0%    100.0%      0.0%
 flops    20 x     5 x   128            348364800       0.0%    100.0%      0.0%
 flops    20 x    22 x    20            973209600       0.0%    100.0%      0.0%
 flops    20 x    20 x    96          12872908800       0.0%    100.0%      0.0%
 flops    20 x    20 x   120          16091136000       0.0%    100.0%      0.0%
 flops    20 x    32 x    20          25480396800       0.0%    100.0%      0.0%
 flops    20 x    20 x   128         102983270400       0.0%    100.0%      0.0%
 flops inhomo. stacks                           0       0.0%      0.0%      0.0%
 flops total                       160.747411E+09       0.0%    100.0%      0.0%
 flops max/rank                      5.436124E+09       0.0%    100.0%      0.0%
 matmuls inhomo. stacks                         0       0.0%      0.0%      0.0%
 matmuls total                            2493663       0.0%    100.0%      0.0%
 number of processed stacks                 26355       0.0%    100.0%      0.0%
 average stack size                                     0.0      94.6       0.0
 marketing flops                   168.074019E+09
 -------------------------------------------------------------------------------
 # multiplications                             43
 max memory usage/rank             398.819328E+06
 # max total images/rank                        2
 # max 3D layers                                1
 # MPI messages exchanged                   17888
 MPI messages size (bytes):
  total size                         7.139678E+09
  min size                          61.440000E+03
  max size                         960.392000E+03
  average size                     399.132281E+03
 MPI breakdown and total messages size (bytes):
             size <=      128                   0                        0
       128 < size <=     8192                   0                        0
      8192 < size <=    32768                   0                        0
     32768 < size <=   131072                1152                122548896
    131072 < size <=  4194304               16736               7017131336
   4194304 < size <= 16777216                   0                        0
  16777216 < size                               0                        0
 -------------------------------------------------------------------------------

 *** WARNING in dbcsr_mm.F:295 :: Using a non-square number of MPI ranks ***
 *** might lead to poor performance. Used ranks: 32 Suggested: 36 64     ***

 -------------------------------------------------------------------------------
 -                                                                             -
 -                      DBCSR MESSAGE PASSING PERFORMANCE                      -
 -                                                                             -
 -------------------------------------------------------------------------------
 ROUTINE             CALLS      AVE VOLUME [Bytes]
 MP_Group               43
 MP_Bcast               55                     12.
 MP_Allreduce          398                     13.
 MP_Alltoall          1143                 255792.
 MP_Wait              2752
 MP_ISend             1376                 174883.
 MP_IRecv             1376                 169805.
 MP_Memory            4612
 -------------------------------------------------------------------------------

 MEMORY| Estimated peak process memory [MiB]                                 384

 -------------------------------------------------------------------------------
 ----                             MULTIGRID INFO                            ----
 -------------------------------------------------------------------------------
 count for grid        1:         253020          cutoff [a.u.]          200.00
 count for grid        2:         269524          cutoff [a.u.]           66.67
 count for grid        3:         157376          cutoff [a.u.]           22.22
 count for grid        4:         113371          cutoff [a.u.]            7.41
 total gridlevel count  :         793291

 -------------------------------------------------------------------------------
 -                                                                             -
 -                         MESSAGE PASSING PERFORMANCE                         -
 -                                                                             -
 -------------------------------------------------------------------------------

 ROUTINE             CALLS      AVE VOLUME [Bytes]
 MP_Group                4
 MP_Bcast             2218                 259152.
 MP_Allreduce         2619                   4055.
 MP_Sync                 5
 MP_Alltoall          1791               13969427.
 MP_SendRecv         51584                 169326.
 MP_ISendRecv         4340                  66000.
 MP_Wait             10388
 MP_ISend             5472                 181609.
 MP_IRecv             5472                 181609.
 MP_Recv                90                 497408.
 MP_Write_All            3                1119280.
 -------------------------------------------------------------------------------


 -------------------------------------------------------------------------------
 -                                                                             -
 -                           R E F E R E N C E S                               -
 -                                                                             -
 -------------------------------------------------------------------------------
 
 CP2K version 7.1, the CP2K developers group (2019).
 CP2K is freely available from https://www.cp2k.org/ .

 Bani-Hashemian, MH; Bruck, S; Luisier, M; VandeVondele, J. 
 JOURNAL OF CHEMICAL PHYSICS, 144 (4), 044113 (2016). 
 A generalized Poisson solver for first-principles device simulations.
 https://dx.doi.org/10.1063/1.4940796

 Schuett, Ole; Messmer, Peter; Hutter, Juerg; VandeVondele, Joost. 
 Electronic Structure Calculations on Graphics Processing Units, John
 Wiley & Sons, Ltd, 173-190 (2016). 
 GPU-Accelerated Sparse Matrix-Matrix Multiplication for
 Linear Scaling Density Functional Theory.
 https://dx.doi.org/10.1002/9781118670712.ch8

 Borstnik, U; VandeVondele, J; Weber, V; Hutter, J. 
 PARALLEL COMPUTING, 40 (5-6), 47-58 (2014). 
 Sparse matrix multiplication: The distributed block-compressed sparse
 row library.
 https://dx.doi.org/10.1016/j.parco.2014.03.012

 Hutter, J; Iannuzzi, M; Schiffmann, F; VandeVondele, J. 
 WIREs Comput Mol Sci., 4 (1), 15-25 (2014). 
 CP2K: atomistic simulations of condensed matter systems.
 https://dx.doi.org/10.1002/wcms.1159

 Marek, A; Blum, V; Johanni, R; Havu, V; Lang, B; Auckenthaler, T;
 Heinecke, A; Bungartz, H; Lederer, H. 
 Journal of Physics: Condensed Matter, 26 (21), (2014). 
 The ELPA library: scalable parallel eigenvalue solutions for
 electronic structure
 theory and computational science.
 https://dx.doi.org/10.1088/0953-8984/26/21/213201

 Grimme, S; Ehrlich, S; Goerigk, L. 
 JOURNAL OF COMPUTATIONAL CHEMISTRY, 32, 1456 (2011). 
 Effect of the damping function in dispersion corrected density functional theory.
 https://dx.doi.org/10.1002/jcc.21759

 Grimme, S; Antony, J; Ehrlich, S; Krieg, H. 
 JOURNAL OF CHEMICAL PHYSICS, 132 (15), 154104 (2010). 
 A consistent and accurate ab initio parametrization of density
 functional dispersion correction (DFT-D) for the 94 elements H-Pu.
 https://dx.doi.org/10.1063/1.3382344

 VandeVondele, J; Hutter, J. 
 JOURNAL OF CHEMICAL PHYSICS, 127 (11), 114105 (2007). 
 Gaussian basis sets for accurate calculations on molecular systems in
 gas and condensed phases.
 https://dx.doi.org/10.1063/1.2770708

 Krack, M. 
 THEORETICAL CHEMISTRY ACCOUNTS, 114 (1-3), 145-152 (2005). 
 Pseudopotentials for H to Kr optimized for gradient-corrected
 exchange-correlation functionals.
 https://dx.doi.org/10.1007/s00214-005-0655-y

 VandeVondele, J; Krack, M; Mohamed, F; Parrinello, M; Chassaing, T;
 Hutter, J. COMPUTER PHYSICS COMMUNICATIONS, 167 (2), 103-128 (2005). 
 QUICKSTEP: Fast and accurate density functional calculations using a
 mixed Gaussian and plane waves approach.
 https://dx.doi.org/10.1016/j.cpc.2004.12.014

 Frigo, M; Johnson, SG. 
 PROCEEDINGS OF THE IEEE, 93 (2), 216-231 (2005). 
 The design and implementation of FFTW3.
 https://dx.doi.org/10.1109/JPROC.2004.840301

 Hartwigsen, C; Goedecker, S; Hutter, J. 
 PHYSICAL REVIEW B, 58 (7), 3641-3662 (1998). 
 Relativistic separable dual-space Gaussian pseudopotentials from H to Rn.
 https://dx.doi.org/10.1103/PhysRevB.58.3641

 Lippert, G; Hutter, J; Parrinello, M. 
 MOLECULAR PHYSICS, 92 (3), 477-487 (1997). 
 A hybrid Gaussian and plane wave density functional scheme.
 https://dx.doi.org/10.1080/002689797170220

 Perdew, JP; Burke, K; Ernzerhof, M. 
 PHYSICAL REVIEW LETTERS, 77 (18), 3865-3868 (1996). 
 Generalized gradient approximation made simple.
 https://dx.doi.org/10.1103/PhysRevLett.77.3865

 Goedecker, S; Teter, M; Hutter, J. 
 PHYSICAL REVIEW B, 54 (3), 1703-1710 (1996). 
 Separable dual-space Gaussian pseudopotentials.
 https://dx.doi.org/10.1103/PhysRevB.54.1703


 -------------------------------------------------------------------------------
 -                                                                             -
 -                                T I M I N G                                  -
 -                                                                             -
 -------------------------------------------------------------------------------
 SUBROUTINE                       CALLS  ASD         SELF TIME        TOTAL TIME
                                MAXIMUM       AVERAGE  MAXIMUM  AVERAGE  MAXIMUM
 CP2K                                 1  1.0    0.011    0.019  141.119  141.126
 qs_forces                            1  2.0    0.000    0.000  140.849  140.852
 qs_energies                          1  3.0    0.000    0.000  136.828  136.831
 scf_env_do_scf                       1  4.0    0.000    0.000   84.106   84.117
 scf_env_do_scf_inner_loop           34  5.0    0.002    0.006   84.103   84.114
 rebuild_ks_matrix                   35  6.9    0.000    0.000   63.799   63.805
 qs_ks_build_kohn_sham_matrix        35  7.9    0.004    0.005   63.799   63.805
 qs_ks_update_qs_env                 34  6.0    0.000    0.000   61.637   61.643
 scf_post_calculation_gpw             1  4.0    0.000    0.000   51.466   51.468
 get_localization_info                1  5.0    0.000    0.000   50.654   50.662
 qs_loc_driver                        1  6.0    0.000    0.000   50.654   50.662
 optimize_loc_berry                   1  7.0    0.016    0.017   50.648   50.650
 jacobi_rot_para                      1  8.0   40.239   42.975   50.559   50.561
 pw_transfer                       1634 11.9    0.094    0.111   45.694   46.229
 fft_wrap_pw1pw2                   1634 12.9    0.017    0.020   45.601   46.143
 fft_wrap_pw1pw2_200               1424 14.1    3.735    3.951   45.103   45.559
 pw_poisson_solve                    35  8.9    0.001    0.001   37.550   37.568
 implicit_poisson_solver_mixed_      35  9.9    0.820    0.971   35.056   35.138
 fft3d_ps                          1634 14.9   22.813   25.131   33.661   34.149
 derive_fft                         172 12.1    0.008    0.009   24.518   24.798
 apply_P_operator                   137 11.1    0.333    0.429   19.884   20.052
 qs_rho_update_rho                   35  6.0    0.000    0.000   13.332   13.343
 calculate_rho_elec                  35  7.0    5.681    9.519   13.332   13.343
 sum_up_and_integrate                35  8.9    0.114    0.134   13.248   13.256
 integrate_v_rspace                  35  9.9    6.043   10.181   13.134   13.146
 qs_vxc_create                       35  8.9    0.001    0.001   11.749   11.825
 xc_vxc_pw_create                    35  9.9    0.128    0.159   11.748   11.825
 mp_allgather_d23                 25730  9.0    6.902    9.901    6.902    9.901
 density_rs2pw                       35  8.0    0.002    0.002    7.193    8.903
 rs_pw_transfer                     284 10.4    0.003    0.004    6.151    7.815
 mp_alltoall_z22v                  1634 16.9    6.130    7.686    6.130    7.686
 apply_poisson_operator_fft          35 10.9    0.000    0.001    7.405    7.465
 x_to_yz                            988 16.1    3.227    4.224    6.432    7.084
 xc_rho_set_and_dset_create          35 10.9    0.048    0.055    6.299    6.712
 mp_alltoall_d11v                   561 10.5    4.343    6.135    4.343    6.135
 rs_distribute_matrix                71  9.4    0.058    0.155    4.370    6.110
 rs_pw_transfer_RS2PW_200            37  9.9    0.445    0.618    4.432    6.083
 mp_waitany                        5472 12.4    4.217    5.947    4.217    5.947
 apply_inv_laplace_operator_fft      88 11.5    0.166    0.195    5.731    5.847
 qs_scf_new_mos                      34  6.0    0.000    0.001    5.768    5.780
 pw_scatter_p                      1023 15.1    5.188    5.531    5.188    5.531
 ps_implicit_compute_veps            35 10.9    0.130    0.199    5.098    5.315
 yz_to_x                            576 15.6    1.444    1.680    4.366    5.205
 eigensolver                         34  7.0    0.002    0.002    5.087    5.096
 cp_fm_diag_elpa                     35  8.0    0.000    0.000    4.166    4.169
 cp_fm_diag_elpa_base                35  9.0    4.062    4.064    4.166    4.169
 ps_implicit_compute_error_fft       51 10.9    0.202    0.220    3.633    3.797
 gspace_mixing                       33  6.0    0.038    0.045    3.692    3.692
 mp_sendrecv_zm3                  25730  9.0    2.553    3.139    2.553    3.139
 pw_gather_p                        611 14.4    2.961    3.115    2.961    3.115
 potential_pw2rs                     35 10.9    0.004    0.004    2.815    2.823
 -------------------------------------------------------------------------------

 The number of warnings for this run is : 1
 
 -------------------------------------------------------------------------------
  **** **** ******  **  PROGRAM ENDED AT                 2024-11-02 00:01:28.072
 ***** ** ***  *** **   PROGRAM RAN ON                                   c53-012
 **    ****   ******    PROGRAM RAN BY                                     jxzhu
 ***** **    ** ** **   PROGRAM PROCESS ID                                267828
  **** **  *******  **  PROGRAM STOPPED IN /data/jxzhu/nnp/dp_workdir/d1f764b96e
                                           9a01b62c3e35b0c4f5198f3ba3ed59/calc.0
                                           00/task.003.000005
