 DBCSR| CPU Multiplication driver                                           XSMM
 DBCSR| Multrec recursion limit                                              512
 DBCSR| Multiplication stack size                                           1000
 DBCSR| Maximum elements for images                                    UNLIMITED
 DBCSR| Multiplicative factor virtual images                                   1
 DBCSR| Use multiplication densification                                       T
 DBCSR| Multiplication size stacks                                             3
 DBCSR| Use memory pool for CPU allocation                                     F
 DBCSR| Number of 3D layers                                               SINGLE
 DBCSR| Use MPI memory allocation                                              F
 DBCSR| Use RMA algorithm                                                      F
 DBCSR| Use Communication thread                                               T
 DBCSR| Communication thread load                                             87
 DBCSR| MPI: My node id                                                        0
 DBCSR| MPI: Number of nodes                                                  32
 DBCSR| OMP: Current number of threads                                         1
 DBCSR| OMP: Max number of threads                                             1
 DBCSR| Split modifier for TAS multiplication algorithm                  1.0E+00


  **** **** ******  **  PROGRAM STARTED AT               2023-12-03 03:03:33.172
 ***** ** ***  *** **   PROGRAM STARTED ON                                 cu042
 **    ****   ******    PROGRAM STARTED BY                                 jxzhu
 ***** **    ** ** **   PROGRAM PROCESS ID                                 13114
  **** **  *******  **  PROGRAM STARTED IN /public/home/jxzhu/tmp_calc/04c0855f9
                                           8753fac23fde4df51ba20f3741a9e9a/calc/
                                           task.000.000009

 CP2K| version string:                                       CP2K version 2022.1
 CP2K| source code revision number:                                  git:2caeb6f
 CP2K| cp2kflags: omp libint fftw3 libxc elpa parallel mpi3 scalapack cosma xsmm
 CP2K|             plumed2 spglib mkl sirius libvori libbqb
 CP2K| is freely available from                            https://www.cp2k.org/
 CP2K| Program compiled at                           Mon Jul 3 17:37:06 CST 2023
 CP2K| Program compiled on                                                 mu003
 CP2K| Program compiled for                                                local
 CP2K| Data directory path                             /public/home/jxzhu/basis/
 CP2K| Input file name                                                 input.inp
 
 GLOBAL| Force Environment number                                              1
 GLOBAL| Basis set file name                                        BASIS_MOLOPT
 GLOBAL| Potential file name                                      GTH_POTENTIALS
 GLOBAL| MM Potential file name                                     MM_POTENTIAL
 GLOBAL| Coordinate file name                                          coord.xyz
 GLOBAL| Method name                                                        CP2K
 GLOBAL| Project name                                                       cp2k
 GLOBAL| Run type                                                   ENERGY_FORCE
 GLOBAL| FFT library                                                       FFTW3
 GLOBAL| Diagonalization library                                            ELPA
 GLOBAL| Minimum number of eigenvectors for ELPA usage                        16
 GLOBAL| Orthonormality check for eigenvectors                          DISABLED
 GLOBAL| Matrix multiplication library                                     COSMA
 GLOBAL| All-to-all communication in single precision                          F
 GLOBAL| FFTs using library dependent lengths                                  T
 GLOBAL| Grid backend                                                       AUTO
 GLOBAL| Global print level                                               MEDIUM
 GLOBAL| MPI I/O enabled                                                       T
 GLOBAL| Total number of message passing processes                            32
 GLOBAL| Number of threads for this process                                    1
 GLOBAL| This output is from process                                           0
 GLOBAL| Stack size for threads created by OpenMP (OMP_STACKSIZE)        default
 GLOBAL| CPU model name                 Intel(R) Xeon(R) Gold 6338 CPU @ 2.00GHz
 GLOBAL| CPUID                                                              1003

 MEMORY| system memory details [Kb]
 MEMORY|                        rank 0           min           max       average
 MEMORY| MemTotal            263619172     263619172     263619172     263619172
 MEMORY| MemFree             173177948     173177948     173177948     173177948
 MEMORY| Buffers                  3320          3320          3320          3320
 MEMORY| Cached                9086108       9086108       9086108       9086108
 MEMORY| Slab                  2003640       2003640       2003640       2003640
 MEMORY| SReclaimable           247796        247796        247796        247796
 MEMORY| MemLikelyFree       182515172     182515172     182515172     182515172


 *** Fundamental physical constants (SI units) ***

 *** Literature: B. J. Mohr and B. N. Taylor,
 ***             CODATA recommended values of the fundamental physical
 ***             constants: 2006, Web Version 5.1
 ***             http://physics.nist.gov/constants

 Speed of light in vacuum [m/s]                             2.99792458000000E+08
 Magnetic constant or permeability of vacuum [N/A**2]       1.25663706143592E-06
 Electric constant or permittivity of vacuum [F/m]          8.85418781762039E-12
 Planck constant (h) [J*s]                                  6.62606896000000E-34
 Planck constant (h-bar) [J*s]                              1.05457162825177E-34
 Elementary charge [C]                                      1.60217648700000E-19
 Electron mass [kg]                                         9.10938215000000E-31
 Electron g factor [ ]                                     -2.00231930436220E+00
 Proton mass [kg]                                           1.67262163700000E-27
 Fine-structure constant                                    7.29735253760000E-03
 Rydberg constant [1/m]                                     1.09737315685270E+07
 Avogadro constant [1/mol]                                  6.02214179000000E+23
 Boltzmann constant [J/K]                                   1.38065040000000E-23
 Atomic mass unit [kg]                                      1.66053878200000E-27
 Bohr radius [m]                                            5.29177208590000E-11

 *** Conversion factors ***

 [u] -> [a.u.]                                              1.82288848426455E+03
 [Angstrom] -> [Bohr] = [a.u.]                              1.88972613288564E+00
 [a.u.] = [Bohr] -> [Angstrom]                              5.29177208590000E-01
 [a.u.] -> [s]                                              2.41888432650478E-17
 [a.u.] -> [fs]                                             2.41888432650478E-02
 [a.u.] -> [J]                                              4.35974393937059E-18
 [a.u.] -> [N]                                              8.23872205491840E-08
 [a.u.] -> [K]                                              3.15774647902944E+05
 [a.u.] -> [kJ/mol]                                         2.62549961709828E+03
 [a.u.] -> [kcal/mol]                                       6.27509468713739E+02
 [a.u.] -> [Pa]                                             2.94210107994716E+13
 [a.u.] -> [bar]                                            2.94210107994716E+08
 [a.u.] -> [atm]                                            2.90362800883016E+08
 [a.u.] -> [eV]                                             2.72113838565563E+01
 [a.u.] -> [Hz]                                             6.57968392072181E+15
 [a.u.] -> [1/cm] (wave numbers)                            2.19474631370540E+05
 [a.u./Bohr**2] -> [1/cm]                                   5.14048714338585E+03
 

 CELL_TOP| Volume [angstrom^3]:                                     12686.086737
 CELL_TOP| Vector a [angstrom    16.869     0.000     0.000   |a| =    16.869000
 CELL_TOP| Vector b [angstrom    -8.434    14.609     0.000   |b| =    16.868929
 CELL_TOP| Vector c [angstrom     0.000     0.000    51.478   |c| =    51.477900
 CELL_TOP| Angle (b,c), alpha [degree]:                                90.000000
 CELL_TOP| Angle (a,c), beta  [degree]:                                90.000000
 CELL_TOP| Angle (a,b), gamma [degree]:                               120.000140
 CELL_TOP| Numerically orthorhombic:                                          NO
 
 GENERATE|  Preliminary Number of Bonds generated:                             0
 GENERATE|  Achieved consistency in connectivity generation.

 CELL| Volume [angstrom^3]:                                         12686.086737
 CELL| Vector a [angstrom]:      16.869     0.000     0.000   |a| =    16.869000
 CELL| Vector b [angstrom]:      -8.434    14.609     0.000   |b| =    16.868929
 CELL| Vector c [angstrom]:       0.000     0.000    51.478   |c| =    51.477900
 CELL| Angle (b,c), alpha [degree]:                                    90.000000
 CELL| Angle (a,c), beta  [degree]:                                    90.000000
 CELL| Angle (a,b), gamma [degree]:                                   120.000140
 CELL| Numerically orthorhombic:                                              NO

 CELL_REF| Volume [angstrom^3]:                                     12686.086737
 CELL_REF| Vector a [angstrom    16.869     0.000     0.000   |a| =    16.869000
 CELL_REF| Vector b [angstrom    -8.434    14.609     0.000   |b| =    16.868929
 CELL_REF| Vector c [angstrom     0.000     0.000    51.478   |c| =    51.477900
 CELL_REF| Angle (b,c), alpha [degree]:                                90.000000
 CELL_REF| Angle (a,c), beta  [degree]:                                90.000000
 CELL_REF| Angle (a,b), gamma [degree]:                               120.000140
 CELL_REF| Numerically orthorhombic:                                          NO

 *******************************************************************************
 *******************************************************************************
 **                                                                           **
 **     #####                         ##              ##                      **
 **    ##   ##            ##          ##              ##                      **
 **   ##     ##                       ##            ######                    **
 **   ##     ##  ##   ##  ##   #####  ##  ##   ####   ##    #####    #####    **
 **   ##     ##  ##   ##  ##  ##      ## ##   ##      ##   ##   ##  ##   ##   **
 **   ##  ## ##  ##   ##  ##  ##      ####     ###    ##   ######   ######    **
 **    ##  ###   ##   ##  ##  ##      ## ##      ##   ##   ##       ##        **
 **     #######   #####   ##   #####  ##  ##  ####    ##    #####   ##        **
 **           ##                                                    ##        **
 **                                                                           **
 **                                                ... make the atoms dance   **
 **                                                                           **
 **            Copyright (C) by CP2K developers group (2000-2022)             **
 **                      J. Chem. Phys. 152, 194103 (2020)                    **
 **                                                                           **
 *******************************************************************************

 DFT| Spin restricted Kohn-Sham (RKS) calculation                            RKS
 DFT| Multiplicity                                                             1
 DFT| Number of spin states                                                    1
 DFT| Charge                                                                   0
 DFT| Self-interaction correction (SIC)                                       NO
 DFT| Cutoffs: density                                              1.000000E-10
 DFT|          gradient                                             1.000000E-10
 DFT|          tau                                                  1.000000E-10
 DFT|          cutoff_smoothing_range                               0.000000E+00
 DFT| XC density smoothing                                                  NONE
 DFT| XC derivatives                                                          PW

 FUNCTIONAL| PBE:
 FUNCTIONAL| J.P.Perdew, K.Burke, M.Ernzerhof, Phys. Rev. Letter, vol. 77, n 18,
 FUNCTIONAL|  pp. 3865-3868, (1996){spin unpolarized}                           

 vdW POTENTIAL|                                                   Pair Potential
 vdW POTENTIAL|          DFT-D3 (Version 3.1)
 vdW POTENTIAL|          Potential Form: S. Grimme et al, JCP 132: 154104 (2010)
 vdW POTENTIAL|          Zero Damping
 vdW POTENTIAL|          Cutoff Radius [Bohr]:                             20.00
 vdW POTENTIAL|          s6 Scaling Factor:                               1.0000
 vdW POTENTIAL|          sr6 Scaling Factor:                              1.2170
 vdW POTENTIAL|          s8 Scaling Factor:                               0.7220
 vdW POTENTIAL|          Cutoff for CN calculation:                   0.1000E-05

 QS| Method:                                                                 GPW
 QS| Density plane wave grid type                        NON-SPHERICAL FULLSPACE
 QS| Number of grid levels:                                                    4
 QS| Density cutoff [a.u.]:                                                200.0
 QS| Multi grid cutoff [a.u.]: 1) grid level                               200.0
 QS|                           2) grid level                                66.7
 QS|                           3) grid level                                22.2
 QS|                           4) grid level                                 7.4
 QS| Grid level progression factor:                                          3.0
 QS| Relative density cutoff [a.u.]:                                        20.0
 QS| Interaction thresholds: eps_pgf_orb:                                3.2E-07
 QS|                         eps_filter_matrix:                          0.0E+00
 QS|                         eps_core_charge:                            1.0E-15
 QS|                         eps_rho_gspace:                             1.0E-13
 QS|                         eps_rho_rspace:                             1.0E-13
 QS|                         eps_gvg_rspace:                             3.2E-07
 QS|                         eps_ppl:                                    1.0E-02
 QS|                         eps_ppnl:                                   3.2E-09


 ATOMIC KIND INFORMATION

  1. Atomic kind: Pt                                    Number of atoms:     216

     Orbital Basis Set                      DZVP-A5-Q10-323-MOL-T1-DERIVED_SET-1

       Number of orbital shell sets:                                           1
       Number of orbital shells:                                               6
       Number of primitive Cartesian functions:                                5
       Number of Cartesian basis functions:                                   23
       Number of spherical basis functions:                                   20
       Norm type:                                                              2

       Normalised Cartesian orbitals:

                        Set   Shell   Orbital            Exponent    Coefficient

                          1       1    2s                2.521825       0.177473
                                                         1.453920      -0.063399
                                                         0.614053      -0.407089
                                                         0.232656       0.262254
                                                         0.074788       0.047371

                          1       2    3s                2.521825      -0.049056
                                                         1.453920       0.044904
                                                         0.614053      -0.009756
                                                         0.232656      -0.144709
                                                         0.074788       0.144085

                          1       3    3px               2.521825      -0.317572
                                                         1.453920       0.534826
                                                         0.614053      -0.489458
                                                         0.232656       0.245631
                                                         0.074788       0.018221
                          1       3    3py               2.521825      -0.317572
                                                         1.453920       0.534826
                                                         0.614053      -0.489458
                                                         0.232656       0.245631
                                                         0.074788       0.018221
                          1       3    3pz               2.521825      -0.317572
                                                         1.453920       0.534826
                                                         0.614053      -0.489458
                                                         0.232656       0.245631
                                                         0.074788       0.018221

                          1       4    4dx2              2.521825       3.008522
                                                         1.453920      -1.224251
                                                         0.614053       0.225691
                                                         0.232656       0.125144
                                                         0.074788      -0.015348
                          1       4    4dxy              2.521825       5.210912
                                                         1.453920      -2.120465
                                                         0.614053       0.390909
                                                         0.232656       0.216756
                                                         0.074788      -0.026584
                          1       4    4dxz              2.521825       5.210912
                                                         1.453920      -2.120465
                                                         0.614053       0.390909
                                                         0.232656       0.216756
                                                         0.074788      -0.026584
                          1       4    4dy2              2.521825       3.008522
                                                         1.453920      -1.224251
                                                         0.614053       0.225691
                                                         0.232656       0.125144
                                                         0.074788      -0.015348
                          1       4    4dyz              2.521825       5.210912
                                                         1.453920      -2.120465
                                                         0.614053       0.390909
                                                         0.232656       0.216756
                                                         0.074788      -0.026584
                          1       4    4dz2              2.521825       3.008522
                                                         1.453920      -1.224251
                                                         0.614053       0.225691
                                                         0.232656       0.125144
                                                         0.074788      -0.015348

                          1       5    5dx2              2.521825       0.698026
                                                         1.453920      -1.511486
                                                         0.614053      -0.335394
                                                         0.232656      -0.025564
                                                         0.074788      -0.002699
                          1       5    5dxy              2.521825       1.209017
                                                         1.453920      -2.617970
                                                         0.614053      -0.580920
                                                         0.232656      -0.044277
                                                         0.074788      -0.004674
                          1       5    5dxz              2.521825       1.209017
                                                         1.453920      -2.617970
                                                         0.614053      -0.580920
                                                         0.232656      -0.044277
                                                         0.074788      -0.004674
                          1       5    5dy2              2.521825       0.698026
                                                         1.453920      -1.511486
                                                         0.614053      -0.335394
                                                         0.232656      -0.025564
                                                         0.074788      -0.002699
                          1       5    5dyz              2.521825       1.209017
                                                         1.453920      -2.617970
                                                         0.614053      -0.580920
                                                         0.232656      -0.044277
                                                         0.074788      -0.004674
                          1       5    5dz2              2.521825       0.698026
                                                         1.453920      -1.511486
                                                         0.614053      -0.335394
                                                         0.232656      -0.025564
                                                         0.074788      -0.002699

                          1       6    6dx2              2.521825       0.831079
                                                         1.453920      -0.709226
                                                         0.614053      -0.137351
                                                         0.232656       0.068642
                                                         0.074788       0.011745
                          1       6    6dxy              2.521825       1.439472
                                                         1.453920      -1.228415
                                                         0.614053      -0.237899
                                                         0.232656       0.118891
                                                         0.074788       0.020343
                          1       6    6dxz              2.521825       1.439472
                                                         1.453920      -1.228415
                                                         0.614053      -0.237899
                                                         0.232656       0.118891
                                                         0.074788       0.020343
                          1       6    6dy2              2.521825       0.831079
                                                         1.453920      -0.709226
                                                         0.614053      -0.137351
                                                         0.232656       0.068642
                                                         0.074788       0.011745
                          1       6    6dyz              2.521825       1.439472
                                                         1.453920      -1.228415
                                                         0.614053      -0.237899
                                                         0.232656       0.118891
                                                         0.074788       0.020343
                          1       6    6dz2              2.521825       0.831079
                                                         1.453920      -0.709226
                                                         0.614053      -0.137351
                                                         0.232656       0.068642
                                                         0.074788       0.011745

       Atomic covalent radius [Angstrom]:                                  1.300

       Atomic van der Waals radius [Angstrom]:                             1.750

     GTH Potential information for                                   GTH-PBE-q10

       Description:                       Goedecker-Teter-Hutter pseudopotential
                                           Goedecker et al., PRB 54, 1703 (1996)
                                          Hartwigsen et al., PRB 58, 3641 (1998)
                                                      Krack, TCA 114, 145 (2005)

       Gaussian exponent of the core charge distribution:               1.317676
       Electronic configuration (s p d ...):                           1   0   9

       Parameters of the local part of the GTH pseudopotential:

                          rloc        C1          C2          C3          C4
                        0.616000   11.313635

       Parameters of the non-local part of the GTH pseudopotential:

                   l      r(l)      h(i,j,l)

                   0    0.550904    4.733491   -1.784594
                                   -1.784594    2.303901
                   1    0.674138    2.534798   -1.778066
                                   -1.778066    2.103836
                   2    0.457392   -7.264011    2.558665
                                    2.558665   -2.901253


 MOLECULE KIND INFORMATION


 All atoms are their own molecule, skipping detailed information


 TOTAL NUMBERS AND MAXIMUM NUMBERS

  Total number of            - Atomic kinds:                                   1
                             - Atoms:                                        216
                             - Shell sets:                                   216
                             - Shells:                                      1296
                             - Primitive Cartesian functions:               1080
                             - Cartesian basis functions:                   4968
                             - Spherical basis functions:                   4320

  Maximum angular momentum of- Orbital basis functions:                        2
                             - Local part of the GTH pseudopotential:          0
                             - Non-local part of the GTH pseudopotential:      4


 MODULE QUICKSTEP:  ATOMIC COORDINATES IN angstrom

 Atom  Kind  Element       X           Y           Z          Z(eff)       Mass
    1   1 Pt  78       2.080765    0.509470   19.914936      10.0000    195.0840
    2   1 Pt  78       4.880765    0.599470   19.984935      10.0000    195.0840
    3   1 Pt  78       7.630766    0.409470   19.894935      10.0000    195.0840
    4   1 Pt  78      10.570766    0.379470   20.104934      10.0000    195.0840
    5   1 Pt  78      13.370766    0.509470   19.994938      10.0000    195.0840
    6   1 Pt  78      16.160766    0.469470   19.724933      10.0000    195.0840
    7   1 Pt  78       3.540765    2.949470   19.944934      10.0000    195.0840
    8   1 Pt  78       6.330765    2.899470   19.984935      10.0000    195.0840
    9   1 Pt  78       9.250766    2.739470   20.064937      10.0000    195.0840
   10   1 Pt  78      12.010766    2.949470   20.074936      10.0000    195.0840
   11   1 Pt  78      14.920766    2.879470   19.904937      10.0000    195.0840
   12   1 Pt  78       0.760765    2.859470   19.744934      10.0000    195.0840
   13   1 Pt  78       4.990765    5.349470   19.944934      10.0000    195.0840
   14   1 Pt  78       7.860766    5.269470   19.894935      10.0000    195.0840
   15   1 Pt  78      10.650766    5.319470   19.814933      10.0000    195.0840
   16   1 Pt  78      13.430765    5.289470   19.934936      10.0000    195.0840
   17   1 Pt  78      -0.529235    5.289470   19.944934      10.0000    195.0840
   18   1 Pt  78       2.250765    5.349470   19.864936      10.0000    195.0840
   19   1 Pt  78       6.490765    7.749470   20.014934      10.0000    195.0840
   20   1 Pt  78       9.290766    7.719470   19.854934      10.0000    195.0840
   21   1 Pt  78      12.090766    7.769470   19.934936      10.0000    195.0840
   22   1 Pt  78      -1.999235    7.799471   19.974937      10.0000    195.0840
   23   1 Pt  78       0.740765    7.779470   19.874935      10.0000    195.0840
   24   1 Pt  78       3.580765    7.809470   19.904937      10.0000    195.0840
   25   1 Pt  78       7.800765   10.149470   19.944934      10.0000    195.0840
   26   1 Pt  78      10.650766   10.199471   19.924934      10.0000    195.0840
   27   1 Pt  78      -3.399235   10.079470   19.904937      10.0000    195.0840
   28   1 Pt  78      -0.629235   10.289470   19.944934      10.0000    195.0840
   29   1 Pt  78       2.200765   10.279470   19.934936      10.0000    195.0840
   30   1 Pt  78       5.000765   10.189470   20.024933      10.0000    195.0840
   31   1 Pt  78       9.030766   12.609470   19.944934      10.0000    195.0840
   32   1 Pt  78      -4.839236   12.689470   20.004936      10.0000    195.0840
   33   1 Pt  78      -2.079235   12.739470   19.874935      10.0000    195.0840
   34   1 Pt  78       0.710765   12.669470   20.014934      10.0000    195.0840
   35   1 Pt  78       3.610765   12.659470   19.854934      10.0000    195.0840
   36   1 Pt  78       6.270765   12.679471   19.834938      10.0000    195.0840
   37   1 Pt  78       0.670765    1.259470   22.114936      10.0000    195.0840
   38   1 Pt  78       3.500765    1.339470   22.274936      10.0000    195.0840
   39   1 Pt  78       6.370765    1.279470   22.284935      10.0000    195.0840
   40   1 Pt  78       9.110766    1.159470   22.424934      10.0000    195.0840
   41   1 Pt  78      11.990766    1.249470   22.394935      10.0000    195.0840
   42   1 Pt  78      14.740766    1.279470   22.234935      10.0000    195.0840
   43   1 Pt  78       2.200765    3.689470   22.364936      10.0000    195.0840
   44   1 Pt  78       4.940765    3.859470   22.204937      10.0000    195.0840
   45   1 Pt  78       7.720765    3.699470   22.264938      10.0000    195.0840
   46   1 Pt  78      10.590765    3.599470   22.394935      10.0000    195.0840
   47   1 Pt  78      13.450765    3.719470   22.284935      10.0000    195.0840
   48   1 Pt  78      -0.649235    3.669470   22.334938      10.0000    195.0840
   49   1 Pt  78       3.550765    6.189470   22.224933      10.0000    195.0840
   50   1 Pt  78       6.490765    6.169470   22.254936      10.0000    195.0840
   51   1 Pt  78       9.240766    6.029470   22.214935      10.0000    195.0840
   52   1 Pt  78      12.020765    6.189470   22.224933      10.0000    195.0840
   53   1 Pt  78      -1.879235    6.179470   22.204937      10.0000    195.0840
   54   1 Pt  78       0.790765    6.189470   22.264938      10.0000    195.0840
   55   1 Pt  78       5.040765    8.599470   22.334938      10.0000    195.0840
   56   1 Pt  78       7.820766    8.619470   22.384933      10.0000    195.0840
   57   1 Pt  78      10.600765    8.579470   22.234935      10.0000    195.0840
   58   1 Pt  78      -3.419235    8.579470   22.284935      10.0000    195.0840
   59   1 Pt  78      -0.629235    8.589470   22.244934      10.0000    195.0840
   60   1 Pt  78       2.200765    8.519470   22.234935      10.0000    195.0840
   61   1 Pt  78       6.370765   11.129470   22.304935      10.0000    195.0840
   62   1 Pt  78       9.100765   10.969471   22.234935      10.0000    195.0840
   63   1 Pt  78      -4.819235   10.949470   22.164936      10.0000    195.0840
   64   1 Pt  78      -2.009235   10.999470   22.204937      10.0000    195.0840
   65   1 Pt  78       0.850765   10.949470   22.284935      10.0000    195.0840
   66   1 Pt  78       3.620765   10.879470   22.184936      10.0000    195.0840
   67   1 Pt  78       7.730765   13.489470   22.334938      10.0000    195.0840
   68   1 Pt  78      -6.289235   13.429470   22.164936      10.0000    195.0840
   69   1 Pt  78      -3.459235   13.439470   22.264938      10.0000    195.0840
   70   1 Pt  78      -0.729235   13.339471   22.184936      10.0000    195.0840
   71   1 Pt  78       2.240765   13.339471   22.294933      10.0000    195.0840
   72   1 Pt  78       4.890765   13.329470   22.264938      10.0000    195.0840
   73   1 Pt  78      -7.749236   14.269470   24.504936      10.0000    195.0840
   74   1 Pt  78      -4.909235   14.219470   24.504936      10.0000    195.0840
   75   1 Pt  78      -2.079235   14.219470   24.564933      10.0000    195.0840
   76   1 Pt  78       0.710765   14.149470   24.574936      10.0000    195.0840
   77   1 Pt  78       3.560765   14.199471   24.624935      10.0000    195.0840
   78   1 Pt  78       6.350765   14.259471   24.654937      10.0000    195.0840
   79   1 Pt  78       2.100765    2.069470   24.524936      10.0000    195.0840
   80   1 Pt  78       5.010765    2.139470   24.594936      10.0000    195.0840
   81   1 Pt  78       7.800765    2.029470   24.674934      10.0000    195.0840
   82   1 Pt  78      10.570766    1.989470   24.704933      10.0000    195.0840
   83   1 Pt  78      13.420766    2.059470   24.704933      10.0000    195.0840
   84   1 Pt  78      -0.659235    2.049470   24.564933      10.0000    195.0840
   85   1 Pt  78       3.620765    4.579470   24.554935      10.0000    195.0840
   86   1 Pt  78       6.390765    4.549470   24.514938      10.0000    195.0840
   87   1 Pt  78       9.290766    4.549470   24.674934      10.0000    195.0840
   88   1 Pt  78      11.900766    4.489470   24.604934      10.0000    195.0840
   89   1 Pt  78      -2.079235    4.509470   24.534935      10.0000    195.0840
   90   1 Pt  78       0.780765    4.549470   24.594936      10.0000    195.0840
   91   1 Pt  78       4.990765    7.059470   24.584938      10.0000    195.0840
   92   1 Pt  78       7.750765    6.969471   24.604934      10.0000    195.0840
   93   1 Pt  78      10.520765    7.009470   24.534935      10.0000    195.0840
   94   1 Pt  78      -3.569235    6.929470   24.564933      10.0000    195.0840
   95   1 Pt  78      -0.629235    6.959470   24.614936      10.0000    195.0840
   96   1 Pt  78       2.170765    6.959470   24.604934      10.0000    195.0840
   97   1 Pt  78       6.340765    9.439470   24.594936      10.0000    195.0840
   98   1 Pt  78       9.110766    9.399470   24.544937      10.0000    195.0840
   99   1 Pt  78      -4.849235    9.459471   24.494934      10.0000    195.0840
  100   1 Pt  78      -2.099235    9.329471   24.494934      10.0000    195.0840
  101   1 Pt  78       0.830765    9.269470   24.574936      10.0000    195.0840
  102   1 Pt  78       3.540765    9.439470   24.664936      10.0000    195.0840
  103   1 Pt  78       7.760766   11.869470   24.624935      10.0000    195.0840
  104   1 Pt  78      -6.309235   11.849470   24.394935      10.0000    195.0840
  105   1 Pt  78      -3.509235   11.779470   24.544937      10.0000    195.0840
  106   1 Pt  78      -0.699235   11.769470   24.604934      10.0000    195.0840
  107   1 Pt  78       2.170765   11.809471   24.674934      10.0000    195.0840
  108   1 Pt  78       4.860765   11.889471   24.634933      10.0000    195.0840
  109   1 Pt  78       2.170765    0.459470   26.752934      10.0000    195.0840
  110   1 Pt  78       5.020765    0.319470   26.782934      10.0000    195.0840
  111   1 Pt  78       7.710765    0.419470   26.862934      10.0000    195.0840
  112   1 Pt  78      10.480765    0.389470   26.992934      10.0000    195.0840
  113   1 Pt  78      13.390765    0.379470   27.002934      10.0000    195.0840
  114   1 Pt  78      16.140765    0.429470   26.912934      10.0000    195.0840
  115   1 Pt  78       3.590765    2.809470   26.832934      10.0000    195.0840
  116   1 Pt  78       6.320765    2.909470   26.932934      10.0000    195.0840
  117   1 Pt  78       9.110766    2.889470   26.902934      10.0000    195.0840
  118   1 Pt  78      11.900766    2.809470   26.942934      10.0000    195.0840
  119   1 Pt  78      14.760765    2.849470   26.952934      10.0000    195.0840
  120   1 Pt  78       0.710765    2.809470   26.932934      10.0000    195.0840
  121   1 Pt  78       4.900765    5.349470   26.842934      10.0000    195.0840
  122   1 Pt  78       7.660765    5.439470   26.862934      10.0000    195.0840
  123   1 Pt  78      10.410766    5.369470   26.992934      10.0000    195.0840
  124   1 Pt  78      13.240766    5.219470   26.842934      10.0000    195.0840
  125   1 Pt  78      -0.649235    5.229470   26.822934      10.0000    195.0840
  126   1 Pt  78       2.190765    5.229470   26.812934      10.0000    195.0840
  127   1 Pt  78       6.320765    7.819470   26.892934      10.0000    195.0840
  128   1 Pt  78       9.130765    7.889470   26.892934      10.0000    195.0840
  129   1 Pt  78      11.950765    7.779470   26.922934      10.0000    195.0840
  130   1 Pt  78      -2.149235    7.629470   26.882934      10.0000    195.0840
  131   1 Pt  78       0.740765    7.639470   26.882934      10.0000    195.0840
  132   1 Pt  78       3.570765    7.779470   26.922934      10.0000    195.0840
  133   1 Pt  78       7.690766   10.299471   26.822934      10.0000    195.0840
  134   1 Pt  78      10.570766   10.209470   26.702934      10.0000    195.0840
  135   1 Pt  78      -3.479235   10.159470   26.822934      10.0000    195.0840
  136   1 Pt  78      -0.699235   10.089470   26.912934      10.0000    195.0840
  137   1 Pt  78       1.990765   10.269470   26.952934      10.0000    195.0840
  138   1 Pt  78       4.920765   10.209470   26.882934      10.0000    195.0840
  139   1 Pt  78       9.070766   12.649470   26.872934      10.0000    195.0840
  140   1 Pt  78      -4.959235   12.569470   26.662934      10.0000    195.0840
  141   1 Pt  78      -2.079235   12.469471   26.912934      10.0000    195.0840
  142   1 Pt  78       0.610765   12.539471   26.952934      10.0000    195.0840
  143   1 Pt  78       3.450765   12.569470   27.062934      10.0000    195.0840
  144   1 Pt  78       6.290765   12.659470   27.042934      10.0000    195.0840
  145   1 Pt  78       0.690765    1.109470   29.242934      10.0000    195.0840
  146   1 Pt  78       3.610765    1.149470   29.082934      10.0000    195.0840
  147   1 Pt  78       6.290765    1.219470   29.282934      10.0000    195.0840
  148   1 Pt  78       9.060765    1.309470   29.172934      10.0000    195.0840
  149   1 Pt  78      11.960766    1.279470   29.332934      10.0000    195.0840
  150   1 Pt  78      14.770766    1.099470   29.242934      10.0000    195.0840
  151   1 Pt  78       2.110765    3.669470   29.182934      10.0000    195.0840
  152   1 Pt  78       4.890765    3.589470   29.212934      10.0000    195.0840
  153   1 Pt  78       7.700765    3.719470   29.212934      10.0000    195.0840
  154   1 Pt  78      10.570766    3.759470   29.352934      10.0000    195.0840
  155   1 Pt  78      13.300765    3.639470   29.222934      10.0000    195.0840
  156   1 Pt  78      -0.709235    3.609470   29.252934      10.0000    195.0840
  157   1 Pt  78       3.380765    6.059470   29.072934      10.0000    195.0840
  158   1 Pt  78       6.200765    6.099470   29.122934      10.0000    195.0840
  159   1 Pt  78       9.050765    6.229470   29.312934      10.0000    195.0840
  160   1 Pt  78      11.850765    6.129470   29.182934      10.0000    195.0840
  161   1 Pt  78      -2.209235    6.109470   29.122934      10.0000    195.0840
  162   1 Pt  78       0.610765    6.089470   29.092934      10.0000    195.0840
  163   1 Pt  78       4.830765    8.459471   29.242934      10.0000    195.0840
  164   1 Pt  78       7.670766    8.619470   29.212934      10.0000    195.0840
  165   1 Pt  78      10.480765    8.639470   29.202934      10.0000    195.0840
  166   1 Pt  78      -3.569235    8.639470   29.172934      10.0000    195.0840
  167   1 Pt  78      -0.899235    8.559470   29.202934      10.0000    195.0840
  168   1 Pt  78       2.000765    8.529470   29.152934      10.0000    195.0840
  169   1 Pt  78       6.250765   10.929470   29.292934      10.0000    195.0840
  170   1 Pt  78       9.090765   10.999470   29.162934      10.0000    195.0840
  171   1 Pt  78      -4.969235   10.989470   29.082934      10.0000    195.0840
  172   1 Pt  78      -2.099235   10.969471   29.292934      10.0000    195.0840
  173   1 Pt  78       0.740765   10.979470   29.312934      10.0000    195.0840
  174   1 Pt  78       3.500765   10.919471   29.362934      10.0000    195.0840
  175   1 Pt  78       7.770765   13.299470   29.332934      10.0000    195.0840
  176   1 Pt  78      -6.279236   13.409471   29.122934      10.0000    195.0840
  177   1 Pt  78      -3.499235   13.399469   29.092934      10.0000    195.0840
  178   1 Pt  78      -0.759235   13.559470   29.202934      10.0000    195.0840
  179   1 Pt  78       2.060765   13.499471   29.262934      10.0000    195.0840
  180   1 Pt  78       4.860765   13.269471   29.352934      10.0000    195.0840
  181   1 Pt  78      -7.789236   14.289471   31.642934      10.0000    195.0840
  182   1 Pt  78      -4.939236   14.139470   31.422934      10.0000    195.0840
  183   1 Pt  78      -2.199235   14.169470   31.622934      10.0000    195.0840
  184   1 Pt  78       0.640765   14.289471   31.542934      10.0000    195.0840
  185   1 Pt  78       3.470765   14.179470   31.752934      10.0000    195.0840
  186   1 Pt  78       6.300765   14.119471   31.672934      10.0000    195.0840
  187   1 Pt  78       2.210765    1.969470   31.392934      10.0000    195.0840
  188   1 Pt  78       4.990765    2.039470   31.562934      10.0000    195.0840
  189   1 Pt  78       7.870765    2.179470   31.582934      10.0000    195.0840
  190   1 Pt  78      10.610766    1.989470   31.712934      10.0000    195.0840
  191   1 Pt  78      13.300765    1.989470   31.642934      10.0000    195.0840
  192   1 Pt  78      -0.749235    1.989470   31.692934      10.0000    195.0840
  193   1 Pt  78       3.480765    4.359470   31.442934      10.0000    195.0840
  194   1 Pt  78       6.320765    4.469470   31.532934      10.0000    195.0840
  195   1 Pt  78       9.020765    4.629470   31.702934      10.0000    195.0840
  196   1 Pt  78      11.800765    4.509470   31.642934      10.0000    195.0840
  197   1 Pt  78      -2.219235    4.389470   31.602934      10.0000    195.0840
  198   1 Pt  78       0.770765    4.309470   31.452934      10.0000    195.0840
  199   1 Pt  78       4.820765    6.789470   31.602934      10.0000    195.0840
  200   1 Pt  78       7.510765    7.009470   31.532934      10.0000    195.0840
  201   1 Pt  78      10.450766    6.939470   31.472934      10.0000    195.0840
  202   1 Pt  78      -3.709235    6.919470   31.592934      10.0000    195.0840
  203   1 Pt  78      -0.759235    6.949470   31.512934      10.0000    195.0840
  204   1 Pt  78       2.010765    6.809470   31.452934      10.0000    195.0840
  205   1 Pt  78       6.170765    9.339470   31.512934      10.0000    195.0840
  206   1 Pt  78       9.130765    9.289471   31.532934      10.0000    195.0840
  207   1 Pt  78      -5.009235    9.499470   31.602934      10.0000    195.0840
  208   1 Pt  78      -2.319235    9.259470   31.642934      10.0000    195.0840
  209   1 Pt  78       0.580765    9.299470   31.522934      10.0000    195.0840
  210   1 Pt  78       3.440765    9.229470   31.502934      10.0000    195.0840
  211   1 Pt  78       7.730765   11.679470   31.752934      10.0000    195.0840
  212   1 Pt  78      -6.449236   11.939470   31.572934      10.0000    195.0840
  213   1 Pt  78      -3.559235   11.729470   31.512934      10.0000    195.0840
  214   1 Pt  78      -0.719235   11.759471   31.642934      10.0000    195.0840
  215   1 Pt  78       2.100765   11.759471   31.692934      10.0000    195.0840
  216   1 Pt  78       4.900765   11.759471   31.632934      10.0000    195.0840




 SCF PARAMETERS         Density guess:                                   RESTART
                        --------------------------------------------------------
                        max_scf:                                             500
                        max_scf_history:                                       0
                        max_diis:                                              4
                        --------------------------------------------------------
                        eps_scf:                                        1.00E-06
                        eps_scf_history:                                0.00E+00
                        eps_diis:                                       1.00E-01
                        eps_eigval:                                     1.00E-05
                        --------------------------------------------------------
                        level_shift [a.u.]:                             0.000000
                        added MOs                                       500    0
                        --------------------------------------------------------
                        Mixing method:                            BROYDEN_MIXING
                                                charge density mixing in g-space
                        --------------------------------------------------------
                        Smear method:                                FERMI_DIRAC
                        Electronic temperature [K]:                        300.0
                        Electronic temperature [a.u.]:                  9.50E-04
                        Accuracy threshold:                             1.00E-10
                        --------------------------------------------------------
                        No outer SCF

 PW_GRID| Information for grid number                                          1
 PW_GRID| Grid distributed over                                    32 processors
 PW_GRID| Real space group dimensions                                    32    1
 PW_GRID| the grid is blocked:                                                NO
 PW_GRID| Cutoff [a.u.]                                                    200.0
 PW_GRID| spherical cutoff:                                                   NO
 PW_GRID|   Bounds   1           -105     104                Points:         210
 PW_GRID|   Bounds   2           -105     104                Points:         210
 PW_GRID|   Bounds   3           -315     314                Points:         630
 PW_GRID| Volume element (a.u.^3)  0.3081E-02     Volume (a.u.^3)     85609.9578
 PW_GRID| Grid span                                                    FULLSPACE
 PW_GRID|   Distribution                         Average         Max         Min
 PW_GRID|   G-Vectors                           868218.8      868350      868140
 PW_GRID|   G-Rays                                4134.4        4135        4134
 PW_GRID|   Real Space Points                   868218.8      926100      793800

 PW_GRID| Information for grid number                                          2
 PW_GRID| Number of the reference grid                                         1
 PW_GRID| Grid distributed over                                    32 processors
 PW_GRID| Real space group dimensions                                    32    1
 PW_GRID| the grid is blocked:                                                NO
 PW_GRID| Cutoff [a.u.]                                                     66.7
 PW_GRID| spherical cutoff:                                                   NO
 PW_GRID|   Bounds   1            -60      59                Points:         120
 PW_GRID|   Bounds   2            -60      59                Points:         120
 PW_GRID|   Bounds   3           -180     179                Points:         360
 PW_GRID| Volume element (a.u.^3)  0.1651E-01     Volume (a.u.^3)     85609.9578
 PW_GRID| Grid span                                                    FULLSPACE
 PW_GRID|   Distribution                         Average         Max         Min
 PW_GRID|   G-Vectors                           162000.0      162840      161280
 PW_GRID|   G-Rays                                1350.0        1357        1344
 PW_GRID|   Real Space Points                   162000.0      172800      129600

 PW_GRID| Information for grid number                                          3
 PW_GRID| Number of the reference grid                                         1
 PW_GRID| Grid distributed over                                    32 processors
 PW_GRID| Real space group dimensions                                    32    1
 PW_GRID| the grid is blocked:                                                NO
 PW_GRID| Cutoff [a.u.]                                                     22.2
 PW_GRID| spherical cutoff:                                                   NO
 PW_GRID|   Bounds   1            -35      34                Points:          70
 PW_GRID|   Bounds   2            -35      34                Points:          70
 PW_GRID|   Bounds   3           -105     104                Points:         210
 PW_GRID| Volume element (a.u.^3)  0.8320E-01     Volume (a.u.^3)     85609.9578
 PW_GRID| Grid span                                                    FULLSPACE
 PW_GRID|   Distribution                         Average         Max         Min
 PW_GRID|   G-Vectors                            32156.2       32340       31990
 PW_GRID|   G-Rays                                 459.4         462         457
 PW_GRID|   Real Space Points                    32156.2       44100       29400

 PW_GRID| Information for grid number                                          4
 PW_GRID| Number of the reference grid                                         1
 PW_GRID| Grid distributed over                                    32 processors
 PW_GRID| Real space group dimensions                                    32    1
 PW_GRID| the grid is blocked:                                                NO
 PW_GRID| Cutoff [a.u.]                                                      7.4
 PW_GRID| spherical cutoff:                                                   NO
 PW_GRID|   Bounds   1            -20      19                Points:          40
 PW_GRID|   Bounds   2            -20      19                Points:          40
 PW_GRID|   Bounds   3            -60      59                Points:         120
 PW_GRID| Volume element (a.u.^3)  0.4459         Volume (a.u.^3)     85609.9578
 PW_GRID| Grid span                                                    FULLSPACE
 PW_GRID|   Distribution                         Average         Max         Min
 PW_GRID|   G-Vectors                             6000.0        6120        5920
 PW_GRID|   G-Rays                                 150.0         153         148
 PW_GRID|   Real Space Points                     6000.0        9600        4800

 POISSON| Solver                                          IMPLICIT (GENERALIZED)
 POISSON| Boundary Condition                                PERIODIC & DIRICHLET
 POISSON| Maximum number of iterations                                        30
 POISSON| Convergence threshold                                         1.00E-08
 POISSON| Dielectric Constant                                              80.00
 POISSON| Relaxation parameter                                          1.00E+00

 RS_GRID| Information for grid number                                          1
 RS_GRID|   Bounds   1           -105     104                Points:         210
 RS_GRID|   Bounds   2           -105     104                Points:         210
 RS_GRID|   Bounds   3           -315     314                Points:         630
 RS_GRID| Real space distribution over                                 32 groups
 RS_GRID| Real space distribution along direction                              3
 RS_GRID| Border size                                                         54
 RS_GRID|   Distribution                         Average         Max         Min
 RS_GRID|   Planes                                 127.7         128         127

 RS_GRID| Information for grid number                                          2
 RS_GRID|   Bounds   1            -60      59                Points:         120
 RS_GRID|   Bounds   2            -60      59                Points:         120
 RS_GRID|   Bounds   3           -180     179                Points:         360
 RS_GRID| Real space distribution over                                 32 groups
 RS_GRID| Real space distribution along direction                              3
 RS_GRID| Border size                                                         36
 RS_GRID|   Distribution                         Average         Max         Min
 RS_GRID|   Planes                                  83.2          84          83

 RS_GRID| Information for grid number                                          3
 RS_GRID|   Bounds   1            -35      34                Points:          70
 RS_GRID|   Bounds   2            -35      34                Points:          70
 RS_GRID|   Bounds   3           -105     104                Points:         210
 RS_GRID| Real space fully replicated
 RS_GRID| Group size                                                           1

 RS_GRID| Information for grid number                                          4
 RS_GRID|   Bounds   1            -20      19                Points:          40
 RS_GRID|   Bounds   2            -20      19                Points:          40
 RS_GRID|   Bounds   3            -60      59                Points:         120
 RS_GRID| Real space fully replicated
 RS_GRID| Group size                                                           1

 Number of electrons:                                                       2160
 Number of occupied orbitals:                                               1080
 Number of molecular orbitals:                                              1580

 Number of orbital functions:                                               4320
 Number of independent orbital functions:                                   4320

 Extrapolation method: initial_guess


 SCF WAVEFUNCTION OPTIMIZATION

  Step     Update method      Time    Convergence         Total energy    Change
  ------------------------------------------------------------------------------

  POISSON| IMPLICIT (GENERALIZED) SOLVER ---------------------------------------
  POISSON| Preparing Dirichlet regions ...
  POISSON| Dirichlet region    1
  POISSON|     type : axis-aligned planar
  POISSON|     applied potential :   0.0000E+00  [Eh/e]
  POISSON| Dirichlet region    2
  POISSON|     type : axis-aligned planar
  POISSON|     applied potential :  -0.3675E-01  [Eh/e]
  POISSON| ... Done. 
  ------------------------------------------------------------------------------

  POISSON|   iter        pres error      nabs error        E_hartree    delta E
  POISSON|      1        0.7367E-03      0.3269E-01    1992.6305222030  0.20E+04
  POISSON|      2        0.1721E-15      0.7367E-03    1992.6340264623  0.35E-02
  POISSON| Poisson solver converged in 2 iterations.
     1 NoMix/Diag. 0.30E+00   11.0     0.18504595     -5671.0172852740 -5.67E+03
  POISSON|   iter        pres error      nabs error        E_hartree    delta E
  POISSON|      1        0.6907E-03      0.3250E-01    1992.4977483625 -0.14E+00
  POISSON|      2        0.1025E-14      0.6907E-03    1992.5010341663  0.33E-02
  POISSON| Poisson solver converged in 2 iterations.
     2 Broy./Diag. 0.30E+00   13.4     0.20522056     -5670.8904689448  1.27E-01
  POISSON|   iter        pres error      nabs error        E_hartree    delta E
  POISSON|      1        0.1052E-03      0.4827E-03    1992.6387290239  0.14E+00
  POISSON|      2        0.1448E-17      0.1052E-03    1992.6392296502  0.50E-03
  POISSON| Poisson solver converged in 2 iterations.
     3 Broy./Diag. 0.30E+00   13.3     0.17521964     -5675.2583758176 -4.37E+00
  POISSON|   iter        pres error      nabs error        E_hartree    delta E
  POISSON|      1        0.9293E-04      0.3763E-03    1992.6834453314  0.44E-01
  POISSON|      2        0.7521E-16      0.9293E-04    1992.6830032862 -0.44E-03
  POISSON| Poisson solver converged in 2 iterations.
     4 Broy./Diag. 0.30E+00   13.3     0.14850444     -5672.8175582411  2.44E+00
  POISSON|   iter        pres error      nabs error        E_hartree    delta E
  POISSON|      1        0.3587E-04      0.1435E-03    1992.7613449114  0.78E-01
  POISSON|      2        0.2333E-16      0.3587E-04    1992.7615155537  0.17E-03
  POISSON| Poisson solver converged in 2 iterations.
     5 Broy./Diag. 0.30E+00   13.3     0.08485135     -5672.4249428578  3.93E-01
  POISSON|   iter        pres error      nabs error        E_hartree    delta E
  POISSON|      1        0.3138E-05      0.3900E-04    1992.8341930087  0.73E-01
  POISSON|      2        0.9054E-17      0.3138E-05    1992.8341780839 -0.15E-04
  POISSON| Poisson solver converged in 2 iterations.
     6 Broy./Diag. 0.30E+00   13.3     0.03349782     -5672.7535511249 -3.29E-01
  POISSON|   iter        pres error      nabs error        E_hartree    delta E
  POISSON|      1        0.4045E-05      0.3744E-04    1992.9274963822  0.93E-01
  POISSON|      2        0.7427E-17      0.4045E-05    1992.9274771414 -0.19E-04
  POISSON| Poisson solver converged in 2 iterations.
     7 Broy./Diag. 0.30E+00   13.4     0.02674190     -5672.4308533126  3.23E-01
  POISSON|   iter        pres error      nabs error        E_hartree    delta E
  POISSON|      1        0.1165E-05      0.3517E-04    1992.9821775008  0.55E-01
  POISSON|      2        0.1260E-16      0.1165E-05    1992.9821830420  0.55E-05
  POISSON| Poisson solver converged in 2 iterations.
     8 Broy./Diag. 0.30E+00   13.4     0.01920639     -5672.0532513483  3.78E-01
  POISSON|   iter        pres error      nabs error        E_hartree    delta E
  POISSON|      1        0.6001E-06      0.1125E-04    1993.0037981698  0.22E-01
  POISSON|      2        0.7857E-17      0.6001E-06    1993.0038010246  0.29E-05
  POISSON| Poisson solver converged in 2 iterations.
     9 Broy./Diag. 0.30E+00   13.5     0.00980347     -5672.4018980600 -3.49E-01
  POISSON|   iter        pres error      nabs error        E_hartree    delta E
  POISSON|      1        0.4533E-06      0.5669E-05    1993.0144757184  0.11E-01
  POISSON|      2        0.2682E-18      0.4533E-06    1993.0144778746  0.22E-05
  POISSON| Poisson solver converged in 2 iterations.
    10 Broy./Diag. 0.30E+00   13.5     0.00384880     -5672.2943767684  1.08E-01
  POISSON|   iter        pres error      nabs error        E_hartree    delta E
  POISSON|      1        0.1181E-06      0.4931E-05    1993.0176763816  0.32E-02
  POISSON|      2        0.4740E-17      0.1181E-06    1993.0176758199 -0.56E-06
  POISSON| Poisson solver converged in 2 iterations.
    11 Broy./Diag. 0.30E+00   13.5     0.00370017     -5672.2526873257  4.17E-02
  POISSON|   iter        pres error      nabs error        E_hartree    delta E
  POISSON|      1        0.2408E-06      0.4161E-05    1993.0228433636  0.52E-02
  POISSON|      2        0.9473E-18      0.2408E-06    1993.0228422180 -0.11E-05
  POISSON| Poisson solver converged in 2 iterations.
    12 Broy./Diag. 0.30E+00   13.5     0.00242238     -5672.2831574929 -3.05E-02
  POISSON|   iter        pres error      nabs error        E_hartree    delta E
  POISSON|      1        0.3205E-07      0.3227E-05    1993.0271108476  0.43E-02
  POISSON|      2        0.1286E-17      0.3205E-07    1993.0271106952 -0.15E-06
  POISSON| Poisson solver converged in 2 iterations.
    13 Broy./Diag. 0.30E+00   13.5     0.00097689     -5672.2797452525  3.41E-03
  POISSON|   iter        pres error      nabs error        E_hartree    delta E
  POISSON|      1        0.8953E-07      0.1254E-05    1993.0274286330  0.32E-03
  POISSON|      2        0.1949E-17      0.8953E-07    1993.0274290589  0.43E-06
  POISSON| Poisson solver converged in 2 iterations.
    14 Broy./Diag. 0.30E+00   13.6     0.00077220     -5672.2712754020  8.47E-03
  POISSON|   iter        pres error      nabs error        E_hartree    delta E
  POISSON|      1        0.4095E-06      0.2064E-05    1993.0275792543  0.15E-03
  POISSON|      2        0.3161E-17      0.4095E-06    1993.0275773062 -0.19E-05
  POISSON| Poisson solver converged in 2 iterations.
    15 Broy./Diag. 0.30E+00   13.6     0.00085286     -5672.2726295781 -1.35E-03
  POISSON|   iter        pres error      nabs error        E_hartree    delta E
  POISSON|      1        0.4156E-06      0.1765E-05    1993.0275073719 -0.70E-04
  POISSON|      2        0.3613E-17      0.4156E-06    1993.0275093488  0.20E-05
  POISSON| Poisson solver converged in 2 iterations.
    16 Broy./Diag. 0.30E+00   13.7     0.00117374     -5672.2724612635  1.68E-04
  POISSON|   iter        pres error      nabs error        E_hartree    delta E
  POISSON|      1        0.1921E-06      0.1528E-05    1993.0273134190 -0.20E-03
  POISSON|      2        0.8505E-18      0.1921E-06    1993.0273125053 -0.91E-06
  POISSON| Poisson solver converged in 2 iterations.
    17 Broy./Diag. 0.30E+00   13.5     0.00057744     -5672.2783141146 -5.85E-03
  POISSON|   iter        pres error      nabs error        E_hartree    delta E
  POISSON|      1        0.8804E-07      0.1017E-05    1993.0273931804  0.81E-04
  POISSON|      2        0.1889E-17      0.8804E-07    1993.0273927616 -0.42E-06
  POISSON| Poisson solver converged in 2 iterations.
    18 Broy./Diag. 0.30E+00   13.5     0.00033595     -5672.2756593474  2.65E-03
  POISSON|   iter        pres error      nabs error        E_hartree    delta E
  POISSON|      1        0.1057E-07      0.7699E-06    1993.0272823948 -0.11E-03
  POISSON|      2        0.2096E-17      0.1057E-07    1993.0272824451  0.50E-07
  POISSON| Poisson solver converged in 2 iterations.
    19 Broy./Diag. 0.30E+00   13.6     0.00023843     -5672.2740170432  1.64E-03
  POISSON|   iter        pres error      nabs error        E_hartree    delta E
  POISSON|      1        0.5080E-07      0.5824E-06    1993.0273500349  0.68E-04
  POISSON|      2        0.2809E-17      0.5080E-07    1993.0273497932 -0.24E-06
  POISSON| Poisson solver converged in 2 iterations.
    20 Broy./Diag. 0.30E+00   13.5     0.00013732     -5672.2774434379 -3.43E-03
  POISSON|   iter        pres error      nabs error        E_hartree    delta E
  POISSON|      1        0.7762E-08      0.5631E-06    1993.0275970032  0.25E-03
  POISSON| Poisson solver converged in 1 iteration. 
    21 Broy./Diag. 0.30E+00   12.1     0.00015345     -5672.2770368233  4.07E-04
  POISSON|   iter        pres error      nabs error        E_hartree    delta E
  POISSON|      1        0.2352E-07      0.5918E-06    1993.0276484851  0.51E-04
  POISSON|      2        0.2747E-17      0.2352E-07    1993.0276483732 -0.11E-06
  POISSON| Poisson solver converged in 2 iterations.
    22 Broy./Diag. 0.30E+00   13.5     0.00015554     -5672.2747118950  2.32E-03
  POISSON|   iter        pres error      nabs error        E_hartree    delta E
  POISSON|      1        0.2879E-07      0.6308E-06    1993.0278196445  0.17E-03
  POISSON|      2        0.1881E-17      0.2879E-07    1993.0278195076 -0.14E-06
  POISSON| Poisson solver converged in 2 iterations.
    23 Broy./Diag. 0.30E+00   13.6     0.00012914     -5672.2760105442 -1.30E-03
  POISSON|   iter        pres error      nabs error        E_hartree    delta E
  POISSON|      1        0.5564E-08      0.4961E-06    1993.0279906529  0.17E-03
  POISSON| Poisson solver converged in 1 iteration. 
    24 Broy./Diag. 0.30E+00   12.2     0.00008238     -5672.2766034262 -5.93E-04
  POISSON|   iter        pres error      nabs error        E_hartree    delta E
  POISSON|      1        0.1920E-07      0.3957E-06    1993.0281053618  0.11E-03
  POISSON|      2        0.2106E-17      0.1920E-07    1993.0281054531  0.91E-07
  POISSON| Poisson solver converged in 2 iterations.
    25 Broy./Diag. 0.30E+00   13.5     0.00009565     -5672.2759668583  6.37E-04
  POISSON|   iter        pres error      nabs error        E_hartree    delta E
  POISSON|      1        0.6416E-07      0.3463E-06    1993.0281698787  0.64E-04
  POISSON|      2        0.1240E-17      0.6416E-07    1993.0281695735 -0.31E-06
  POISSON| Poisson solver converged in 2 iterations.
    26 Broy./Diag. 0.30E+00   13.5     0.00013716     -5672.2757898491  1.77E-04
  POISSON|   iter        pres error      nabs error        E_hartree    delta E
  POISSON|      1        0.2463E-07      0.5229E-06    1993.0282527379  0.83E-04
  POISSON|      2        0.9746E-18      0.2463E-07    1993.0282528550  0.12E-06
  POISSON| Poisson solver converged in 2 iterations.
    27 Broy./Diag. 0.30E+00   13.5     0.00010594     -5672.2751733491  6.17E-04
  POISSON|   iter        pres error      nabs error        E_hartree    delta E
  POISSON|      1        0.7414E-09      0.3798E-06    1993.0282973432  0.44E-04
  POISSON| Poisson solver converged in 1 iteration. 
    28 Broy./Diag. 0.30E+00   12.1     0.00005088     -5672.2759467368 -7.73E-04
  POISSON|   iter        pres error      nabs error        E_hartree    delta E
  POISSON|      1        0.1532E-07      0.3714E-06    1993.0283438009  0.46E-04
  POISSON|      2        0.2278E-17      0.1532E-07    1993.0283437281 -0.73E-07
  POISSON| Poisson solver converged in 2 iterations.
    29 Broy./Diag. 0.30E+00   13.7     0.00005259     -5672.2760612787 -1.15E-04
  POISSON|   iter        pres error      nabs error        E_hartree    delta E
  POISSON|      1        0.4169E-08      0.3377E-06    1993.0283346024 -0.91E-05
  POISSON| Poisson solver converged in 1 iteration. 
    30 Broy./Diag. 0.30E+00   12.2     0.00003589     -5672.2754644715  5.97E-04
  POISSON|   iter        pres error      nabs error        E_hartree    delta E
  POISSON|      1        0.1033E-07      0.3918E-06    1993.0282967034 -0.38E-04
  POISSON|      2        0.3672E-17      0.1033E-07    1993.0282966542 -0.49E-07
  POISSON| Poisson solver converged in 2 iterations.
    31 Broy./Diag. 0.30E+00   13.5     0.00003485     -5672.2758631590 -3.99E-04
  POISSON|   iter        pres error      nabs error        E_hartree    delta E
  POISSON|      1        0.2489E-08      0.2756E-06    1993.0282965516 -0.10E-06
  POISSON| Poisson solver converged in 1 iteration. 
    32 Broy./Diag. 0.30E+00   12.2     0.00004086     -5672.2763104414 -4.47E-04
  POISSON|   iter        pres error      nabs error        E_hartree    delta E
  POISSON|      1        0.2875E-08      0.2216E-06    1993.0282633775 -0.33E-04
  POISSON| Poisson solver converged in 1 iteration. 
    33 Broy./Diag. 0.30E+00   12.2     0.00003761     -5672.2759852904  3.25E-04
  POISSON|   iter        pres error      nabs error        E_hartree    delta E
  POISSON|      1        0.3361E-08      0.2264E-06    1993.0282448805 -0.18E-04
  POISSON| Poisson solver converged in 1 iteration. 
    34 Broy./Diag. 0.30E+00   12.3     0.00003016     -5672.2759810468  4.24E-06
  POISSON|   iter        pres error      nabs error        E_hartree    delta E
  POISSON|      1        0.3969E-08      0.1652E-06    1993.0282477201  0.28E-05
  POISSON| Poisson solver converged in 1 iteration. 
    35 Broy./Diag. 0.30E+00   12.2     0.00002537     -5672.2762910632 -3.10E-04
  POISSON|   iter        pres error      nabs error        E_hartree    delta E
  POISSON|      1        0.1622E-07      0.8174E-07    1993.0282499124  0.22E-05
  POISSON|      2        0.2680E-17      0.1622E-07    1993.0282499895  0.77E-07
  POISSON| Poisson solver converged in 2 iterations.
    36 Broy./Diag. 0.30E+00   13.6     0.00003404     -5672.2762823293  8.73E-06
  POISSON|   iter        pres error      nabs error        E_hartree    delta E
  POISSON|      1        0.8653E-08      0.1458E-06    1993.0282743844  0.24E-04
  POISSON| Poisson solver converged in 1 iteration. 
    37 Broy./Diag. 0.30E+00   12.3     0.00003231     -5672.2763427460 -6.04E-05
  POISSON|   iter        pres error      nabs error        E_hartree    delta E
  POISSON|      1        0.1968E-08      0.1386E-06    1993.0283029173  0.29E-04
  POISSON| Poisson solver converged in 1 iteration. 
    38 Broy./Diag. 0.30E+00   12.2     0.00001646     -5672.2761204690  2.22E-04
  POISSON|   iter        pres error      nabs error        E_hartree    delta E
  POISSON|      1        0.3993E-08      0.8707E-07    1993.0283216640  0.19E-04
  POISSON| Poisson solver converged in 1 iteration. 
    39 Broy./Diag. 0.30E+00   12.2     0.00001687     -5672.2761448863 -2.44E-05
  POISSON|   iter        pres error      nabs error        E_hartree    delta E
  POISSON|      1        0.1980E-08      0.8721E-07    1993.0283541503  0.32E-04
  POISSON| Poisson solver converged in 1 iteration. 
    40 Broy./Diag. 0.30E+00   12.1     0.00001544     -5672.2762968164 -1.52E-04
  POISSON|   iter        pres error      nabs error        E_hartree    delta E
  POISSON|      1        0.3238E-08      0.9541E-07    1993.0283822486  0.28E-04
  POISSON| Poisson solver converged in 1 iteration. 
    41 Broy./Diag. 0.30E+00   12.2     0.00000814     -5672.2761037039  1.93E-04
  POISSON|   iter        pres error      nabs error        E_hartree    delta E
  POISSON|      1        0.1639E-09      0.7447E-07    1993.0283931298  0.11E-04
  POISSON| Poisson solver converged in 1 iteration. 
    42 Broy./Diag. 0.30E+00   12.2     0.00000908     -5672.2760516014  5.21E-05
  POISSON|   iter        pres error      nabs error        E_hartree    delta E
  POISSON|      1        0.1521E-08      0.8003E-07    1993.0284086925  0.16E-04
  POISSON| Poisson solver converged in 1 iteration. 
    43 Broy./Diag. 0.30E+00   12.1     0.00000868     -5672.2761200284 -6.84E-05
  POISSON|   iter        pres error      nabs error        E_hartree    delta E
  POISSON|      1        0.2380E-08      0.6193E-07    1993.0284158893  0.72E-05
  POISSON| Poisson solver converged in 1 iteration. 
    44 Broy./Diag. 0.30E+00   12.1     0.00001047     -5672.2761122989  7.73E-06
  POISSON|   iter        pres error      nabs error        E_hartree    delta E
  POISSON|      1        0.2087E-08      0.7692E-07    1993.0284116273 -0.43E-05
  POISSON| Poisson solver converged in 1 iteration. 
    45 Broy./Diag. 0.30E+00   12.2     0.00000747     -5672.2760321148  8.02E-05
  POISSON|   iter        pres error      nabs error        E_hartree    delta E
  POISSON|      1        0.4245E-08      0.2827E-07    1993.0284127874  0.12E-05
  POISSON| Poisson solver converged in 1 iteration. 
    46 Broy./Diag. 0.30E+00   12.1     0.00001212     -5672.2760668355 -3.47E-05
  POISSON|   iter        pres error      nabs error        E_hartree    delta E
  POISSON|      1        0.5173E-08      0.7187E-07    1993.0284022740 -0.11E-04
  POISSON| Poisson solver converged in 1 iteration. 
    47 Broy./Diag. 0.30E+00   12.2     0.00001093     -5672.2760695189 -2.68E-06
  POISSON|   iter        pres error      nabs error        E_hartree    delta E
  POISSON|      1        0.2696E-09      0.6076E-07    1993.0283915823 -0.11E-04
  POISSON| Poisson solver converged in 1 iteration. 
    48 Broy./Diag. 0.30E+00   12.2     0.00000585     -5672.2761143807 -4.49E-05
  POISSON|   iter        pres error      nabs error        E_hartree    delta E
  POISSON|      1        0.1927E-09      0.4135E-07    1993.0283844920 -0.71E-05
  POISSON| Poisson solver converged in 1 iteration. 
    49 Broy./Diag. 0.30E+00   12.2     0.00000582     -5672.2761202734 -5.89E-06
  POISSON|   iter        pres error      nabs error        E_hartree    delta E
  POISSON|      1        0.2400E-08      0.5087E-07    1993.0283745566 -0.99E-05
  POISSON| Poisson solver converged in 1 iteration. 
    50 Broy./Diag. 0.30E+00   12.2     0.00000642     -5672.2760615678  5.87E-05
  POISSON|   iter        pres error      nabs error        E_hartree    delta E
  POISSON|      1        0.4933E-09      0.5046E-07    1993.0283698254 -0.47E-05
  POISSON| Poisson solver converged in 1 iteration. 
    51 Broy./Diag. 0.30E+00   12.2     0.00000343     -5672.2761430771 -8.15E-05
  POISSON|   iter        pres error      nabs error        E_hartree    delta E
  POISSON|      1        0.1491E-08      0.2931E-07    1993.0283704522  0.63E-06
  POISSON| Poisson solver converged in 1 iteration. 
    52 Broy./Diag. 0.30E+00   12.2     0.00000371     -5672.2761312008  1.19E-05
  POISSON|   iter        pres error      nabs error        E_hartree    delta E
  POISSON|      1        0.8418E-09      0.4231E-07    1993.0283726116  0.22E-05
  POISSON| Poisson solver converged in 1 iteration. 
    53 Broy./Diag. 0.30E+00   12.2     0.00000281     -5672.2760969406  3.43E-05
  POISSON|   iter        pres error      nabs error        E_hartree    delta E
  POISSON|      1        0.2941E-09      0.2315E-07    1993.0283764932  0.39E-05
  POISSON| Poisson solver converged in 1 iteration. 
    54 Broy./Diag. 0.30E+00   12.1     0.00000391     -5672.2760989169 -1.98E-06
  POISSON|   iter        pres error      nabs error        E_hartree    delta E
  POISSON|      1        0.8420E-09      0.2672E-07    1993.0283843128  0.78E-05
  POISSON| Poisson solver converged in 1 iteration. 
    55 Broy./Diag. 0.30E+00   12.1     0.00000284     -5672.2761136305 -1.47E-05
  POISSON|   iter        pres error      nabs error        E_hartree    delta E
  POISSON|      1        0.1431E-08      0.1417E-07    1993.0283864482  0.21E-05
  POISSON| Poisson solver converged in 1 iteration. 
    56 Broy./Diag. 0.30E+00   12.2     0.00000316     -5672.2760880081  2.56E-05
  POISSON|   iter        pres error      nabs error        E_hartree    delta E
  POISSON|      1        0.5406E-09      0.1910E-07    1993.0283924137  0.60E-05
  POISSON| Poisson solver converged in 1 iteration. 
    57 Broy./Diag. 0.30E+00   12.2     0.00000277     -5672.2760874831  5.25E-07
  POISSON|   iter        pres error      nabs error        E_hartree    delta E
  POISSON|      1        0.1184E-08      0.1669E-07    1993.0283978798  0.55E-05
  POISSON| Poisson solver converged in 1 iteration. 
    58 Broy./Diag. 0.30E+00   12.1     0.00000215     -5672.2760808241  6.66E-06
  POISSON|   iter        pres error      nabs error        E_hartree    delta E
  POISSON|      1        0.5782E-09      0.1283E-07    1993.0284006957  0.28E-05
  POISSON| Poisson solver converged in 1 iteration. 
    59 Broy./Diag. 0.30E+00   12.3     0.00000197     -5672.2760765389  4.29E-06
  POISSON|   iter        pres error      nabs error        E_hartree    delta E
  POISSON|      1        0.7296E-12      0.1064E-07    1993.0284035472  0.29E-05
  POISSON| Poisson solver converged in 1 iteration. 
    60 Broy./Diag. 0.30E+00   12.1     0.00000201     -5672.2761001484 -2.36E-05
  POISSON|   iter        pres error      nabs error        E_hartree    delta E
  POISSON|      1        0.6598E-09      0.1105E-07    1993.0284044555  0.91E-06
  POISSON| Poisson solver converged in 1 iteration. 
    61 Broy./Diag. 0.30E+00   12.3     0.00000141     -5672.2760744754  2.57E-05
  POISSON|   iter        pres error      nabs error        E_hartree    delta E
  POISSON|      1        0.1918E-09      0.9762E-08    1993.0284043036 -0.15E-06
  POISSON| Poisson solver converged in 1 iteration. 
    62 Broy./Diag. 0.30E+00   12.1     0.00000102     -5672.2760881091 -1.36E-05
  POISSON|   iter        pres error      nabs error        E_hartree    delta E
  POISSON|      1        0.5458E-09      0.1056E-07    1993.0284034955 -0.81E-06
  POISSON| Poisson solver converged in 1 iteration. 
    63 Broy./Diag. 0.30E+00   12.1     0.00000091     -5672.2760938287 -5.72E-06

  *** SCF run converged in    63 steps ***


  Electronic density on regular grids:      -2159.9999999992        0.0000000008
  Core density on regular grids:             2159.9999999995       -0.0000000005
  Total charge density on r-space grids:        0.0000000003
  Total charge density g-space grids:           0.0000000003

  Overlap energy of the core charge distribution:               0.00003134237563
  Self energy of the core charge distribution:              -9891.63555570741482
  Core Hamiltonian energy:                                   3202.14752127417796
  Hartree energy:                                            1993.02840349554481
  Electric enthalpy:                                         1993.02142712409250
  Exchange-correlation energy:                               -971.07901388430594
  Dispersion energy:                                           -4.69667115781535
  Electronic entropic energy:                                  -0.03383283116051
  Fermi energy:                                                -0.18993439666267

  Total energy:                                             -5672.27609382874198

 The electron density is written in cube file format to the file:

 cp2k-ELECTRON_DENSITY-1_0.cube

 !-----------------------------------------------------------------------------!
                     Mulliken Population Analysis

 #  Atom  Element  Kind  Atomic population                           Net charge
       1     Pt       1         10.044633                             -0.044633
       2     Pt       1         10.053057                             -0.053057
       3     Pt       1         10.033855                             -0.033855
       4     Pt       1         10.062676                             -0.062676
       5     Pt       1         10.043562                             -0.043562
       6     Pt       1         10.021598                             -0.021598
       7     Pt       1         10.039381                             -0.039381
       8     Pt       1         10.046688                             -0.046688
       9     Pt       1         10.074313                             -0.074313
      10     Pt       1         10.057040                             -0.057040
      11     Pt       1         10.048110                             -0.048110
      12     Pt       1         10.028235                             -0.028235
      13     Pt       1         10.052125                             -0.052125
      14     Pt       1         10.055166                             -0.055166
      15     Pt       1         10.036425                             -0.036425
      16     Pt       1         10.045750                             -0.045750
      17     Pt       1         10.052192                             -0.052192
      18     Pt       1         10.046858                             -0.046858
      19     Pt       1         10.062612                             -0.062612
[...]
    191      1      Pt          0.00924098    -0.00052559    -0.00267459
    192      1      Pt         -0.00660599     0.00127693    -0.01507253
    193      1      Pt          0.01066930     0.01326589     0.00972081
    194      1      Pt         -0.00653411     0.00332960     0.00227239
    195      1      Pt          0.00694879    -0.00800613    -0.00960900
    196      1      Pt          0.00859361     0.00146770    -0.00015671
    197      1      Pt          0.00609404     0.01101733    -0.01570971
    198      1      Pt         -0.02075146     0.01506895     0.00939216
    199      1      Pt         -0.00923418     0.00202177    -0.01152146
    200      1      Pt          0.01317172    -0.01109501     0.00031330
    201      1      Pt          0.00383162     0.00029134     0.01537939
    202      1      Pt          0.01298167    -0.00292463    -0.01178952
    203      1      Pt         -0.01254820    -0.01486752    -0.00719271
    204      1      Pt          0.00264869     0.00079872    -0.00305925
    205      1      Pt          0.00916641    -0.00244002     0.00901000
    206      1      Pt         -0.00984648     0.01731314     0.00018246
    207      1      Pt         -0.00474674    -0.01159434    -0.00819561
    208      1      Pt          0.01089296     0.00460270    -0.00382107
    209      1      Pt          0.00588592     0.00300916    -0.00001354
    210      1      Pt         -0.01024977     0.00318773     0.01000015
    211      1      Pt         -0.00954712     0.00635018    -0.01206342
    212      1      Pt          0.00618085    -0.02490172    -0.00744645
    213      1      Pt         -0.00012357     0.01336406    -0.00002346
    214      1      Pt         -0.00023590     0.00511752    -0.01134209
    215      1      Pt         -0.00895066     0.00070243    -0.01026936
    216      1      Pt         -0.00224848    -0.00287556     0.01154554
 SUM OF ATOMIC FORCES           0.00001135    -0.00000579    -0.00007909     0.00008011

 -------------------------------------------------------------------------------
 -                                                                             -
 -                                DBCSR STATISTICS                             -
 -                                                                             -
 -------------------------------------------------------------------------------
 COUNTER                                    TOTAL       BLAS       SMM       ACC
 flops    20 x    12 x    20            447897600       0.0%    100.0%      0.0%
 flops    20 x    32 x    20          58525286400       0.0%    100.0%      0.0%
 flops    20 x    20 x   204         248609088000       0.0%    100.0%      0.0%
 flops    20 x    20 x   224         272982528000       0.0%    100.0%      0.0%
 flops    20 x    20 x   192        1403910144000       0.0%    100.0%      0.0%
 flops inhomo. stacks                           0       0.0%      0.0%      0.0%
 flops total                         1.984475E+12       0.0%    100.0%      0.0%
 flops max/rank                     63.687885E+09       0.0%    100.0%      0.0%
 matmuls inhomo. stacks                         0       0.0%      0.0%      0.0%
 matmuls total                           14519520       0.0%    100.0%      0.0%
 number of processed stacks                 19072       0.0%    100.0%      0.0%
 average stack size                                     0.0     761.3       0.0
 marketing flops                     2.825001E+12
 -------------------------------------------------------------------------------
 # multiplications                             66
 max memory usage/rank               1.817768E+09
 # max total images/rank                        2
 # max 3D layers                                1
 # MPI messages exchanged                   27456
 MPI messages size (bytes):
  total size                        36.702028E+09
  min size                         829.440000E+03
  max size                           4.665600E+06
  average size                       1.336758E+06
 MPI breakdown and total messages size (bytes):
             size <=      128                   0                        0
       128 < size <=     8192                   0                        0
      8192 < size <=    32768                   0                        0
     32768 < size <=   131072                   0                        0
    131072 < size <=  4194304               27232              35656934400
   4194304 < size <= 16777216                 224               1045094400
  16777216 < size                               0                        0
 -------------------------------------------------------------------------------

 *** WARNING in dbcsr_mm.F:290 :: Using a non-square number of MPI ranks ***
 *** might lead to poor performance. Used ranks: 32 Suggested: 36 64     ***

 -------------------------------------------------------------------------------
 -                                                                             -
 -                      DBCSR MESSAGE PASSING PERFORMANCE                      -
 -                                                                             -
 -------------------------------------------------------------------------------
 ROUTINE             CALLS      AVE VOLUME [Bytes]
 MP_Bcast                6                     12.
 MP_Allreduce          485                      9.
 MP_Alltoall          1829                1275340.
 MP_ISend             2112                 578495.
 MP_IRecv             2112                 561506.
 -------------------------------------------------------------------------------

 -------------------------------------------------------------------------------
 -                                                                             -
 -                                DBM STATISTICS                               -
 -                                                                             -
 -------------------------------------------------------------------------------
    M  x    N  x    K                                          COUNT     PERCENT
 -------------------------------------------------------------------------------

 -------------------------------------------------------------------------------
 -                                                                             -
 -                                GRID STATISTICS                              -
 -                                                                             -
 -------------------------------------------------------------------------------
 LP    KERNEL             BACKEND                              COUNT     PERCENT
 4     collocate general  REF                               21805568      49.97%
 4     integrate general  REF                               21464856      49.19%
 5     integrate general  REF                                 340712       0.78%
 0     collocate general  REF                                  13824       0.03%
 0     integrate general  REF                                   6912       0.02%
 1     integrate general  REF                                   6912       0.02%
 -------------------------------------------------------------------------------

 MEMORY| Estimated peak process memory [MiB]                                2155

 -------------------------------------------------------------------------------
 ----                             MULTIGRID INFO                            ----
 -------------------------------------------------------------------------------
 count for grid        1:          17594          cutoff [a.u.]          200.00
 count for grid        2:         177679          cutoff [a.u.]           66.67
 count for grid        3:         109716          cutoff [a.u.]           22.22
 count for grid        4:         155384          cutoff [a.u.]            7.41
 total gridlevel count  :         460373

 -------------------------------------------------------------------------------
 -                                                                             -
 -                         MESSAGE PASSING PERFORMANCE                         -
 -                                                                             -
 -------------------------------------------------------------------------------

 ROUTINE             CALLS      AVE VOLUME [Bytes]
 MP_Group                4
 MP_Bcast             1770                 164528.
 MP_Allreduce         1610                   1571.
 MP_Sync                69
 MP_Alltoall          3115               49328812.
 MP_SendRecv           124                  14976.
 MP_ISendRecv         7936                 214800.
 MP_Wait             19240
 MP_comm_split           1
 MP_ISend            10136                 715003.
 MP_IRecv            10136                 715003.
 MP_Recv               192                1105920.
 MP_Write_All            3                4213860.
 -------------------------------------------------------------------------------


 -------------------------------------------------------------------------------
 -                                                                             -
 -                           R E F E R E N C E S                               -
 -                                                                             -
 -------------------------------------------------------------------------------
 
 CP2K version 2022.1, the CP2K developers group (2022).
 CP2K is freely available from https://www.cp2k.org/ .

 Kuehne,Thomas D.; Iannuzzi,Marcella; Del Ben,Mauro;
 Rybkin,Vladimir V.; Seewald,Patrick; Stein,Frederick; Laino,Teodoro;
 Khaliullin,Rustam Z.; Schuett,Ole; Schiffmann,Florian; Golze,Dorothea;
 Wilhelm,Jan; Chulkov,Sergey; Bani-Hashemian,Mohammad Hossein;
 Weber,Valery; Borstnik,Urban; Taillefumier,Mathieu;
 Jakobovits,Alice Shoshana; Lazzaro,Alfio; Pabst,Hans; Mueller,Tiziano;
 Schade,Robert; Guidon,Manuel; Andermatt,Samuel; Holmberg,Nico;
 Schenter,Gregory K.; Hehn,Anna; Bussy,Augustin; Belleflamme,Fabian;
 Tabacchi,Gloria; Gloess,Andreas; Lass,Michael; Bethune,Iain;
 Mundy,Christopher J.; Plessl,Christian; Watkins,Matt;
 VandeVondele,Joost; Krack,Matthias; Hutter,Juerg. 
 The Journal of Chemical Physics, 152 (19), (2020). 
 CP2K: An electronic structure and molecular dynamics software package -
 Quickstep: Efficient and accurate electronic structure calculations.
 https://doi.org/10.1063/5.0007045

 Goerigk, Lars; Hansen, Andreas; Bauer, Christoph; Ehrlich, Stephan;
 Najibi, Asim; Grimme, Stefan. , 19 (48), (2017). 
 A look at the density functional theory zoo with the advanced GMTKN55 database
 for general main group thermochemistry, kinetics and noncovalent interactions.
 https://doi.org/10.1039/C7CP04913G

 Bani-Hashemian, MH; Bruck, S; Luisier, M; VandeVondele, J. 
 JOURNAL OF CHEMICAL PHYSICS, 144 (4), 044113 (2016). 
 A generalized Poisson solver for first-principles device simulations.
 https://doi.org/10.1063/1.4940796

 Schuett, Ole; Messmer, Peter; Hutter, Juerg; VandeVondele, Joost. 
 Electronic Structure Calculations on Graphics Processing Units, John
 Wiley & Sons, Ltd, 173-190 (2016). 
 GPU-Accelerated Sparse Matrix-Matrix Multiplication for
 Linear Scaling Density Functional Theory.
 https://doi.org/10.1002/9781118670712.ch8

 Heinecke, A; Henry, G; Hutchinson, M; Pabst, H. 
 Proceedings of Intl. Supercomputing Conference, 981-991 (2016). 
 LIBXSMM: Accelerating Small Matrix Multiplications
 by Runtime Code Generation.
 https://doi.org/10.1109/SC.2016.83

 Borstnik, U; VandeVondele, J; Weber, V; Hutter, J. 
 PARALLEL COMPUTING, 40 (5-6), 47-58 (2014). 
 Sparse matrix multiplication: The distributed block-compressed sparse
 row library.
 https://doi.org/10.1016/j.parco.2014.03.012

 Hutter, J; Iannuzzi, M; Schiffmann, F; VandeVondele, J. 
 WIREs Comput Mol Sci., 4 (1), 15-25 (2014). 
 CP2K: atomistic simulations of condensed matter systems.
 https://doi.org/10.1002/wcms.1159

 Marek, A; Blum, V; Johanni, R; Havu, V; Lang, B; Auckenthaler, T;
 Heinecke, A; Bungartz, H; Lederer, H. 
 Journal of Physics: Condensed Matter, 26 (21), (2014). 
 The ELPA library: scalable parallel eigenvalue solutions for
 electronic structure
 theory and computational science.
 https://doi.org/10.1088/0953-8984/26/21/213201

 Grimme, S; Ehrlich, S; Goerigk, L. 
 JOURNAL OF COMPUTATIONAL CHEMISTRY, 32, 1456 (2011). 
 Effect of the damping function in dispersion corrected density functional theory.
 https://doi.org/10.1002/jcc.21759

 Grimme, S; Antony, J; Ehrlich, S; Krieg, H. 
 JOURNAL OF CHEMICAL PHYSICS, 132 (15), 154104 (2010). 
 A consistent and accurate ab initio parametrization of density
 functional dispersion correction (DFT-D) for the 94 elements H-Pu.
 https://doi.org/10.1063/1.3382344

 VandeVondele, J; Hutter, J. 
 JOURNAL OF CHEMICAL PHYSICS, 127 (11), 114105 (2007). 
 Gaussian basis sets for accurate calculations on molecular systems in
 gas and condensed phases.
 https://doi.org/10.1063/1.2770708

 Krack, M. 
 THEORETICAL CHEMISTRY ACCOUNTS, 114 (1-3), 145-152 (2005). 
 Pseudopotentials for H to Kr optimized for gradient-corrected
 exchange-correlation functionals.
 https://doi.org/10.1007/s00214-005-0655-y

 VandeVondele, J; Krack, M; Mohamed, F; Parrinello, M; Chassaing, T;
 Hutter, J. COMPUTER PHYSICS COMMUNICATIONS, 167 (2), 103-128 (2005). 
 QUICKSTEP: Fast and accurate density functional calculations using a
 mixed Gaussian and plane waves approach.
 https://doi.org/10.1016/j.cpc.2004.12.014

 Frigo, M; Johnson, SG. 
 PROCEEDINGS OF THE IEEE, 93 (2), 216-231 (2005). 
 The design and implementation of FFTW3.
 https://doi.org/10.1109/JPROC.2004.840301

 Hartwigsen, C; Goedecker, S; Hutter, J. 
 PHYSICAL REVIEW B, 58 (7), 3641-3662 (1998). 
 Relativistic separable dual-space Gaussian pseudopotentials from H to Rn.
 https://doi.org/10.1103/PhysRevB.58.3641

 Lippert, G; Hutter, J; Parrinello, M. 
 MOLECULAR PHYSICS, 92 (3), 477-487 (1997). 
 A hybrid Gaussian and plane wave density functional scheme.
 https://doi.org/10.1080/002689797170220

 Perdew, JP; Burke, K; Ernzerhof, M. 
 PHYSICAL REVIEW LETTERS, 77 (18), 3865-3868 (1996). 
 Generalized gradient approximation made simple.
 https://doi.org/10.1103/PhysRevLett.77.3865

 Goedecker, S; Teter, M; Hutter, J. 
 PHYSICAL REVIEW B, 54 (3), 1703-1710 (1996). 
 Separable dual-space Gaussian pseudopotentials.
 https://doi.org/10.1103/PhysRevB.54.1703


 -------------------------------------------------------------------------------
 -                                                                             -
 -                                T I M I N G                                  -
 -                                                                             -
 -------------------------------------------------------------------------------
 SUBROUTINE                       CALLS  ASD         SELF TIME        TOTAL TIME
                                MAXIMUM       AVERAGE  MAXIMUM  AVERAGE  MAXIMUM
 CP2K                                 1  1.0    0.018    0.035  826.842  826.843
 qs_forces                            1  2.0    0.001    0.001  826.425  826.426
 qs_energies                          1  3.0    0.000    0.000  813.590  813.597
 scf_env_do_scf                       1  4.0    0.000    0.001  805.296  805.386
 scf_env_do_scf_inner_loop           63  5.0    0.003    0.006  805.293  805.384
 rebuild_ks_matrix                   64  7.0    0.000    0.000  512.450  512.473
 qs_ks_build_kohn_sham_matrix        64  8.0    0.009    0.011  512.449  512.473
 qs_ks_update_qs_env                 63  6.0    0.000    0.001  504.098  504.121
 pw_transfer                       2972 12.1    0.230    0.339  287.851  291.067
 fft_wrap_pw1pw2                   2972 13.1    0.032    0.039  287.621  290.727
 fft_wrap_pw1pw2_200               2588 14.4   24.159   27.914  284.761  287.430
 pw_poisson_solve                    64  9.0    0.018    0.028  245.487  245.538
 implicit_poisson_solver_mixed_      64 10.0    6.544    7.078  230.830  230.978
 fft3d_ps                          2972 15.1  122.013  131.496  214.690  218.401
 qs_rho_update_rho_low               64  6.0    0.001    0.001  193.860  193.877
 calculate_rho_elec                  64  7.0    0.350    0.374  193.860  193.876
 sum_up_and_integrate                64  9.0    0.995    1.073  182.486  182.521
 integrate_v_rspace                  64 10.0    0.002    0.002  181.491  181.608
 grid_collocate_task_list            64  8.0   85.832  167.281   85.832  167.281
 derive_fft                         312 12.2    0.022    0.026  162.378  163.930
 grid_integrate_task_list            64 11.0   79.659  155.327   79.659  155.327
 rs_pw_transfer                     516 10.5    0.006    0.007  107.098  134.072
 density_rs2pw                       64  8.0    0.004    0.005  106.162  133.230
 apply_P_operator                   248 11.2    2.314    2.673  131.551  132.604
 mp_waitany                       10136 12.4   89.249  116.133   89.249  116.133
 rs_pw_transfer_RS2PW_200            66 10.0    3.702    4.333   87.722  114.679
 mp_alltoall_d11v                   912 10.3   78.392  103.214   78.392  103.214
 rs_gather_matrices                  64 11.0    0.248    0.276   77.155  102.048
 qs_scf_new_mos                      63  6.0    0.006    0.010   79.728   79.834
 qs_vxc_create                       64  9.0    0.002    0.003   75.933   76.897
 xc_vxc_pw_create                    64 10.0    1.709    2.137   75.931   76.895
 eigensolver                         63  7.0    0.006    0.008   71.883   71.994
 x_to_yz                           1861 16.3   40.899   48.882   63.605   67.393
 mp_alltoall_z22v                  2972 17.1   40.400   62.516   40.400   62.516
 xc_pw_derive                       384 12.0    0.007    0.008   51.300   54.092
 apply_poisson_operator_fft          64 11.0    0.001    0.001   48.952   49.216
 cp_fm_diag_elpa                     64  8.0    0.001    0.001   45.783   45.878
 cp_fm_diag_elpa_base                64  9.0   44.821   44.922   45.668   45.738
 yz_to_x                           1111 15.8   11.306   12.203   29.001   41.676
 xc_rho_set_and_dset_create          64 11.0    0.720    0.895   39.633   40.576
 apply_inv_laplace_operator_fft     158 11.6    1.295    1.399   35.063   36.166
 pw_scatter_p                      1861 15.3   31.649   35.462   31.649   35.462
 xc_pw_divergence                    64 11.0    0.004    0.004   33.556   35.357
 ps_implicit_compute_veps            64 11.0    0.774    0.928   33.921   34.774
 gspace_mixing                       62  6.0    0.339    0.362   30.163   30.163
 pw_derive                         1320 13.1   25.059   26.399   25.059   26.399
 cp_fm_triangular_multiply          189  8.0   25.327   25.614   25.327   25.614
 potential_pw2rs                     64 11.0    0.051    0.059   24.664   24.768
 ps_implicit_compute_error_fft       92 11.0    1.690    1.810   22.825   24.538
 broyden_mixing                      62  7.0   22.005   22.346   22.600   22.698
 pw_gather_p                       1111 14.8   16.800   17.381   16.800   17.381
 -------------------------------------------------------------------------------

 The number of warnings for this run is : 1
 
 -------------------------------------------------------------------------------
  **** **** ******  **  PROGRAM ENDED AT                 2023-12-03 03:17:21.279
 ***** ** ***  *** **   PROGRAM RAN ON                                     cu042
 **    ****   ******    PROGRAM RAN BY                                     jxzhu
 ***** **    ** ** **   PROGRAM PROCESS ID                                 13114
  **** **  *******  **  PROGRAM STOPPED IN /public/home/jxzhu/tmp_calc/04c0855f9
                                           8753fac23fde4df51ba20f3741a9e9a/calc/
                                           task.000.000009
