 DBCSR| CPU Multiplication driver                                           XSMM
 DBCSR| Multrec recursion limit                                              512
 DBCSR| Multiplication stack size                                           1000
 DBCSR| Maximum elements for images                                    UNLIMITED
 DBCSR| Multiplicative factor virtual images                                   1
 DBCSR| Use multiplication densification                                       T
 DBCSR| Multiplication size stacks                                             3
 DBCSR| Use memory pool for CPU allocation                                     F
 DBCSR| Number of 3D layers                                               SINGLE
 DBCSR| Use MPI memory allocation                                              F
 DBCSR| Use RMA algorithm                                                      F
 DBCSR| Use Communication thread                                               T
 DBCSR| Communication thread load                                             87
 DBCSR| MPI: My node id                                                        0
 DBCSR| MPI: Number of nodes                                                  32
 DBCSR| OMP: Current number of threads                                         1
 DBCSR| OMP: Max number of threads                                             1
 DBCSR| Split modifier for TAS multiplication algorithm                  1.0E+00


  **** **** ******  **  PROGRAM STARTED AT               2023-12-02 22:34:28.811
 ***** ** ***  *** **   PROGRAM STARTED ON                                 cu042
 **    ****   ******    PROGRAM STARTED BY                                 jxzhu
 ***** **    ** ** **   PROGRAM PROCESS ID                                 28493
  **** **  *******  **  PROGRAM STARTED IN /public/home/jxzhu/tmp_calc/04c0855f9
                                           8753fac23fde4df51ba20f3741a9e9a/calc/
                                           task.000.000015

 CP2K| version string:                                       CP2K version 2022.1
 CP2K| source code revision number:                                  git:2caeb6f
 CP2K| cp2kflags: omp libint fftw3 libxc elpa parallel mpi3 scalapack cosma xsmm
 CP2K|             plumed2 spglib mkl sirius libvori libbqb
 CP2K| is freely available from                            https://www.cp2k.org/
 CP2K| Program compiled at                           Mon Jul 3 17:37:06 CST 2023
 CP2K| Program compiled on                                                 mu003
 CP2K| Program compiled for                                                local
 CP2K| Data directory path                             /public/home/jxzhu/basis/
 CP2K| Input file name                                                 input.inp
 
 GLOBAL| Force Environment number                                              1
 GLOBAL| Basis set file name                                        BASIS_MOLOPT
 GLOBAL| Potential file name                                      GTH_POTENTIALS
 GLOBAL| MM Potential file name                                     MM_POTENTIAL
 GLOBAL| Coordinate file name                                          coord.xyz
 GLOBAL| Method name                                                        CP2K
 GLOBAL| Project name                                                       cp2k
 GLOBAL| Run type                                                   ENERGY_FORCE
 GLOBAL| FFT library                                                       FFTW3
 GLOBAL| Diagonalization library                                            ELPA
 GLOBAL| Minimum number of eigenvectors for ELPA usage                        16
 GLOBAL| Orthonormality check for eigenvectors                          DISABLED
 GLOBAL| Matrix multiplication library                                     COSMA
 GLOBAL| All-to-all communication in single precision                          F
 GLOBAL| FFTs using library dependent lengths                                  T
 GLOBAL| Grid backend                                                       AUTO
 GLOBAL| Global print level                                               MEDIUM
 GLOBAL| MPI I/O enabled                                                       T
 GLOBAL| Total number of message passing processes                            32
 GLOBAL| Number of threads for this process                                    1
 GLOBAL| This output is from process                                           0
 GLOBAL| Stack size for threads created by OpenMP (OMP_STACKSIZE)        default
 GLOBAL| CPU model name                 Intel(R) Xeon(R) Gold 6338 CPU @ 2.00GHz
 GLOBAL| CPUID                                                              1003

 MEMORY| system memory details [Kb]
 MEMORY|                        rank 0           min           max       average
 MEMORY| MemTotal            263619172     263619172     263619172     263619172
 MEMORY| MemFree             162946880     162946880     162947500     162946899
 MEMORY| Buffers                  3320          3320          3320          3320
 MEMORY| Cached                9165748       9165748       9165748       9165748
 MEMORY| Slab                  1954344       1954344       1954344       1954344
 MEMORY| SReclaimable           247388        247388        247388        247388
 MEMORY| MemLikelyFree       172363336     172363336     172363956     172363355


 *** Fundamental physical constants (SI units) ***

 *** Literature: B. J. Mohr and B. N. Taylor,
 ***             CODATA recommended values of the fundamental physical
 ***             constants: 2006, Web Version 5.1
 ***             http://physics.nist.gov/constants

 Speed of light in vacuum [m/s]                             2.99792458000000E+08
 Magnetic constant or permeability of vacuum [N/A**2]       1.25663706143592E-06
 Electric constant or permittivity of vacuum [F/m]          8.85418781762039E-12
 Planck constant (h) [J*s]                                  6.62606896000000E-34
 Planck constant (h-bar) [J*s]                              1.05457162825177E-34
 Elementary charge [C]                                      1.60217648700000E-19
 Electron mass [kg]                                         9.10938215000000E-31
 Electron g factor [ ]                                     -2.00231930436220E+00
 Proton mass [kg]                                           1.67262163700000E-27
 Fine-structure constant                                    7.29735253760000E-03
 Rydberg constant [1/m]                                     1.09737315685270E+07
 Avogadro constant [1/mol]                                  6.02214179000000E+23
 Boltzmann constant [J/K]                                   1.38065040000000E-23
 Atomic mass unit [kg]                                      1.66053878200000E-27
 Bohr radius [m]                                            5.29177208590000E-11

 *** Conversion factors ***

 [u] -> [a.u.]                                              1.82288848426455E+03
 [Angstrom] -> [Bohr] = [a.u.]                              1.88972613288564E+00
 [a.u.] = [Bohr] -> [Angstrom]                              5.29177208590000E-01
 [a.u.] -> [s]                                              2.41888432650478E-17
 [a.u.] -> [fs]                                             2.41888432650478E-02
 [a.u.] -> [J]                                              4.35974393937059E-18
 [a.u.] -> [N]                                              8.23872205491840E-08
 [a.u.] -> [K]                                              3.15774647902944E+05
 [a.u.] -> [kJ/mol]                                         2.62549961709828E+03
 [a.u.] -> [kcal/mol]                                       6.27509468713739E+02
 [a.u.] -> [Pa]                                             2.94210107994716E+13
 [a.u.] -> [bar]                                            2.94210107994716E+08
 [a.u.] -> [atm]                                            2.90362800883016E+08
 [a.u.] -> [eV]                                             2.72113838565563E+01
 [a.u.] -> [Hz]                                             6.57968392072181E+15
 [a.u.] -> [1/cm] (wave numbers)                            2.19474631370540E+05
 [a.u./Bohr**2] -> [1/cm]                                   5.14048714338585E+03
 

 CELL_TOP| Volume [angstrom^3]:                                     12686.086737
 CELL_TOP| Vector a [angstrom    16.869     0.000     0.000   |a| =    16.869000
 CELL_TOP| Vector b [angstrom    -8.434    14.609     0.000   |b| =    16.868929
 CELL_TOP| Vector c [angstrom     0.000     0.000    51.478   |c| =    51.477900
 CELL_TOP| Angle (b,c), alpha [degree]:                                90.000000
 CELL_TOP| Angle (a,c), beta  [degree]:                                90.000000
 CELL_TOP| Angle (a,b), gamma [degree]:                               120.000140
 CELL_TOP| Numerically orthorhombic:                                          NO
 
 GENERATE|  Preliminary Number of Bonds generated:                             0
 GENERATE|  Achieved consistency in connectivity generation.

 CELL| Volume [angstrom^3]:                                         12686.086737
 CELL| Vector a [angstrom]:      16.869     0.000     0.000   |a| =    16.869000
 CELL| Vector b [angstrom]:      -8.434    14.609     0.000   |b| =    16.868929
 CELL| Vector c [angstrom]:       0.000     0.000    51.478   |c| =    51.477900
 CELL| Angle (b,c), alpha [degree]:                                    90.000000
 CELL| Angle (a,c), beta  [degree]:                                    90.000000
 CELL| Angle (a,b), gamma [degree]:                                   120.000140
 CELL| Numerically orthorhombic:                                              NO

 CELL_REF| Volume [angstrom^3]:                                     12686.086737
 CELL_REF| Vector a [angstrom    16.869     0.000     0.000   |a| =    16.869000
 CELL_REF| Vector b [angstrom    -8.434    14.609     0.000   |b| =    16.868929
 CELL_REF| Vector c [angstrom     0.000     0.000    51.478   |c| =    51.477900
 CELL_REF| Angle (b,c), alpha [degree]:                                90.000000
 CELL_REF| Angle (a,c), beta  [degree]:                                90.000000
 CELL_REF| Angle (a,b), gamma [degree]:                               120.000140
 CELL_REF| Numerically orthorhombic:                                          NO

 *******************************************************************************
 *******************************************************************************
 **                                                                           **
 **     #####                         ##              ##                      **
 **    ##   ##            ##          ##              ##                      **
 **   ##     ##                       ##            ######                    **
 **   ##     ##  ##   ##  ##   #####  ##  ##   ####   ##    #####    #####    **
 **   ##     ##  ##   ##  ##  ##      ## ##   ##      ##   ##   ##  ##   ##   **
 **   ##  ## ##  ##   ##  ##  ##      ####     ###    ##   ######   ######    **
 **    ##  ###   ##   ##  ##  ##      ## ##      ##   ##   ##       ##        **
 **     #######   #####   ##   #####  ##  ##  ####    ##    #####   ##        **
 **           ##                                                    ##        **
 **                                                                           **
 **                                                ... make the atoms dance   **
 **                                                                           **
 **            Copyright (C) by CP2K developers group (2000-2022)             **
 **                      J. Chem. Phys. 152, 194103 (2020)                    **
 **                                                                           **
 *******************************************************************************

 DFT| Spin restricted Kohn-Sham (RKS) calculation                            RKS
 DFT| Multiplicity                                                             1
 DFT| Number of spin states                                                    1
 DFT| Charge                                                                   0
 DFT| Self-interaction correction (SIC)                                       NO
 DFT| Cutoffs: density                                              1.000000E-10
 DFT|          gradient                                             1.000000E-10
 DFT|          tau                                                  1.000000E-10
 DFT|          cutoff_smoothing_range                               0.000000E+00
 DFT| XC density smoothing                                                  NONE
 DFT| XC derivatives                                                          PW

 FUNCTIONAL| PBE:
 FUNCTIONAL| J.P.Perdew, K.Burke, M.Ernzerhof, Phys. Rev. Letter, vol. 77, n 18,
 FUNCTIONAL|  pp. 3865-3868, (1996){spin unpolarized}                           

 vdW POTENTIAL|                                                   Pair Potential
 vdW POTENTIAL|          DFT-D3 (Version 3.1)
 vdW POTENTIAL|          Potential Form: S. Grimme et al, JCP 132: 154104 (2010)
 vdW POTENTIAL|          Zero Damping
 vdW POTENTIAL|          Cutoff Radius [Bohr]:                             20.00
 vdW POTENTIAL|          s6 Scaling Factor:                               1.0000
 vdW POTENTIAL|          sr6 Scaling Factor:                              1.2170
 vdW POTENTIAL|          s8 Scaling Factor:                               0.7220
 vdW POTENTIAL|          Cutoff for CN calculation:                   0.1000E-05

 QS| Method:                                                                 GPW
 QS| Density plane wave grid type                        NON-SPHERICAL FULLSPACE
 QS| Number of grid levels:                                                    4
 QS| Density cutoff [a.u.]:                                                200.0
 QS| Multi grid cutoff [a.u.]: 1) grid level                               200.0
 QS|                           2) grid level                                66.7
 QS|                           3) grid level                                22.2
 QS|                           4) grid level                                 7.4
 QS| Grid level progression factor:                                          3.0
 QS| Relative density cutoff [a.u.]:                                        20.0
 QS| Interaction thresholds: eps_pgf_orb:                                3.2E-07
 QS|                         eps_filter_matrix:                          0.0E+00
 QS|                         eps_core_charge:                            1.0E-15
 QS|                         eps_rho_gspace:                             1.0E-13
 QS|                         eps_rho_rspace:                             1.0E-13
 QS|                         eps_gvg_rspace:                             3.2E-07
 QS|                         eps_ppl:                                    1.0E-02
 QS|                         eps_ppnl:                                   3.2E-09


 ATOMIC KIND INFORMATION

  1. Atomic kind: Pt                                    Number of atoms:     216

     Orbital Basis Set                      DZVP-A5-Q10-323-MOL-T1-DERIVED_SET-1

       Number of orbital shell sets:                                           1
       Number of orbital shells:                                               6
       Number of primitive Cartesian functions:                                5
       Number of Cartesian basis functions:                                   23
       Number of spherical basis functions:                                   20
       Norm type:                                                              2

       Normalised Cartesian orbitals:

                        Set   Shell   Orbital            Exponent    Coefficient

                          1       1    2s                2.521825       0.177473
                                                         1.453920      -0.063399
                                                         0.614053      -0.407089
                                                         0.232656       0.262254
                                                         0.074788       0.047371

                          1       2    3s                2.521825      -0.049056
                                                         1.453920       0.044904
                                                         0.614053      -0.009756
                                                         0.232656      -0.144709
                                                         0.074788       0.144085

                          1       3    3px               2.521825      -0.317572
                                                         1.453920       0.534826
                                                         0.614053      -0.489458
                                                         0.232656       0.245631
                                                         0.074788       0.018221
                          1       3    3py               2.521825      -0.317572
                                                         1.453920       0.534826
                                                         0.614053      -0.489458
                                                         0.232656       0.245631
                                                         0.074788       0.018221
                          1       3    3pz               2.521825      -0.317572
                                                         1.453920       0.534826
                                                         0.614053      -0.489458
                                                         0.232656       0.245631
                                                         0.074788       0.018221

                          1       4    4dx2              2.521825       3.008522
                                                         1.453920      -1.224251
                                                         0.614053       0.225691
                                                         0.232656       0.125144
                                                         0.074788      -0.015348
                          1       4    4dxy              2.521825       5.210912
                                                         1.453920      -2.120465
                                                         0.614053       0.390909
                                                         0.232656       0.216756
                                                         0.074788      -0.026584
                          1       4    4dxz              2.521825       5.210912
                                                         1.453920      -2.120465
                                                         0.614053       0.390909
                                                         0.232656       0.216756
                                                         0.074788      -0.026584
                          1       4    4dy2              2.521825       3.008522
                                                         1.453920      -1.224251
                                                         0.614053       0.225691
                                                         0.232656       0.125144
                                                         0.074788      -0.015348
                          1       4    4dyz              2.521825       5.210912
                                                         1.453920      -2.120465
                                                         0.614053       0.390909
                                                         0.232656       0.216756
                                                         0.074788      -0.026584
                          1       4    4dz2              2.521825       3.008522
                                                         1.453920      -1.224251
                                                         0.614053       0.225691
                                                         0.232656       0.125144
                                                         0.074788      -0.015348

                          1       5    5dx2              2.521825       0.698026
                                                         1.453920      -1.511486
                                                         0.614053      -0.335394
                                                         0.232656      -0.025564
                                                         0.074788      -0.002699
                          1       5    5dxy              2.521825       1.209017
                                                         1.453920      -2.617970
                                                         0.614053      -0.580920
                                                         0.232656      -0.044277
                                                         0.074788      -0.004674
                          1       5    5dxz              2.521825       1.209017
                                                         1.453920      -2.617970
                                                         0.614053      -0.580920
                                                         0.232656      -0.044277
                                                         0.074788      -0.004674
                          1       5    5dy2              2.521825       0.698026
                                                         1.453920      -1.511486
                                                         0.614053      -0.335394
                                                         0.232656      -0.025564
                                                         0.074788      -0.002699
                          1       5    5dyz              2.521825       1.209017
                                                         1.453920      -2.617970
                                                         0.614053      -0.580920
                                                         0.232656      -0.044277
                                                         0.074788      -0.004674
                          1       5    5dz2              2.521825       0.698026
                                                         1.453920      -1.511486
                                                         0.614053      -0.335394
                                                         0.232656      -0.025564
                                                         0.074788      -0.002699

                          1       6    6dx2              2.521825       0.831079
                                                         1.453920      -0.709226
                                                         0.614053      -0.137351
                                                         0.232656       0.068642
                                                         0.074788       0.011745
                          1       6    6dxy              2.521825       1.439472
                                                         1.453920      -1.228415
                                                         0.614053      -0.237899
                                                         0.232656       0.118891
                                                         0.074788       0.020343
                          1       6    6dxz              2.521825       1.439472
                                                         1.453920      -1.228415
                                                         0.614053      -0.237899
                                                         0.232656       0.118891
                                                         0.074788       0.020343
                          1       6    6dy2              2.521825       0.831079
                                                         1.453920      -0.709226
                                                         0.614053      -0.137351
                                                         0.232656       0.068642
                                                         0.074788       0.011745
                          1       6    6dyz              2.521825       1.439472
                                                         1.453920      -1.228415
                                                         0.614053      -0.237899
                                                         0.232656       0.118891
                                                         0.074788       0.020343
                          1       6    6dz2              2.521825       0.831079
                                                         1.453920      -0.709226
                                                         0.614053      -0.137351
                                                         0.232656       0.068642
                                                         0.074788       0.011745

       Atomic covalent radius [Angstrom]:                                  1.300

       Atomic van der Waals radius [Angstrom]:                             1.750

     GTH Potential information for                                   GTH-PBE-q10

       Description:                       Goedecker-Teter-Hutter pseudopotential
                                           Goedecker et al., PRB 54, 1703 (1996)
                                          Hartwigsen et al., PRB 58, 3641 (1998)
                                                      Krack, TCA 114, 145 (2005)

       Gaussian exponent of the core charge distribution:               1.317676
       Electronic configuration (s p d ...):                           1   0   9

       Parameters of the local part of the GTH pseudopotential:

                          rloc        C1          C2          C3          C4
                        0.616000   11.313635

       Parameters of the non-local part of the GTH pseudopotential:

                   l      r(l)      h(i,j,l)

                   0    0.550904    4.733491   -1.784594
                                   -1.784594    2.303901
                   1    0.674138    2.534798   -1.778066
                                   -1.778066    2.103836
                   2    0.457392   -7.264011    2.558665
                                    2.558665   -2.901253


 MOLECULE KIND INFORMATION


 All atoms are their own molecule, skipping detailed information


 TOTAL NUMBERS AND MAXIMUM NUMBERS

  Total number of            - Atomic kinds:                                   1
                             - Atoms:                                        216
                             - Shell sets:                                   216
                             - Shells:                                      1296
                             - Primitive Cartesian functions:               1080
                             - Cartesian basis functions:                   4968
                             - Spherical basis functions:                   4320

  Maximum angular momentum of- Orbital basis functions:                        2
                             - Local part of the GTH pseudopotential:          0
                             - Non-local part of the GTH pseudopotential:      4


 MODULE QUICKSTEP:  ATOMIC COORDINATES IN angstrom

 Atom  Kind  Element       X           Y           Z          Z(eff)       Mass
    1   1 Pt  78       2.286382    0.429470   19.714934      10.0000    195.0840
    2   1 Pt  78       5.126383    0.479470   19.834936      10.0000    195.0840
    3   1 Pt  78       7.846383    0.369470   19.804937      10.0000    195.0840
    4   1 Pt  78      10.626383    0.339470   19.864935      10.0000    195.0840
    5   1 Pt  78      13.476382    0.449470   20.054934      10.0000    195.0840
    6   1 Pt  78      16.326384    0.419470   19.934935      10.0000    195.0840
    7   1 Pt  78       3.576383    2.789470   19.924933      10.0000    195.0840
    8   1 Pt  78       6.436383    2.829470   20.004934      10.0000    195.0840
    9   1 Pt  78       9.166383    2.849470   19.874937      10.0000    195.0840
   10   1 Pt  78      12.026383    2.899470   19.834936      10.0000    195.0840
   11   1 Pt  78      14.936383    2.729470   20.024935      10.0000    195.0840
   12   1 Pt  78       0.906382    2.889470   20.004934      10.0000    195.0840
   13   1 Pt  78       5.026383    5.239470   19.714934      10.0000    195.0840
   14   1 Pt  78       7.906383    5.359470   20.074934      10.0000    195.0840
   15   1 Pt  78      10.636384    5.319470   19.834936      10.0000    195.0840
   16   1 Pt  78      13.476382    5.209470   19.854933      10.0000    195.0840
   17   1 Pt  78      -0.653618    5.219470   19.914934      10.0000    195.0840
   18   1 Pt  78       2.216382    5.249470   19.824934      10.0000    195.0840
   19   1 Pt  78       6.426383    7.709470   19.814936      10.0000    195.0840
   20   1 Pt  78       9.336383    7.709470   19.914934      10.0000    195.0840
   21   1 Pt  78      12.146382    7.709470   19.904936      10.0000    195.0840
   22   1 Pt  78      -1.953618    7.839470   19.894934      10.0000    195.0840
   23   1 Pt  78       0.856382    7.739470   19.794935      10.0000    195.0840
   24   1 Pt  78       3.706383    7.709470   19.724936      10.0000    195.0840
   25   1 Pt  78       7.776383   10.149470   19.854933      10.0000    195.0840
   26   1 Pt  78      10.726383   10.169470   19.954935      10.0000    195.0840
   27   1 Pt  78      -3.533618   10.199469   19.964937      10.0000    195.0840
   28   1 Pt  78      -0.653618   10.179470   19.864935      10.0000    195.0840
   29   1 Pt  78       2.236383   10.029470   19.834936      10.0000    195.0840
   30   1 Pt  78       4.976383   10.179470   19.754934      10.0000    195.0840
   31   1 Pt  78       9.316382   12.659470   19.764933      10.0000    195.0840
   32   1 Pt  78      -4.823618   12.719471   19.814936      10.0000    195.0840
   33   1 Pt  78      -2.033618   12.589471   19.834936      10.0000    195.0840
   34   1 Pt  78       0.786382   12.449470   19.864935      10.0000    195.0840
   35   1 Pt  78       3.636383   12.519470   20.034937      10.0000    195.0840
   36   1 Pt  78       6.416383   12.489470   19.874937      10.0000    195.0840
   37   1 Pt  78       0.746382    1.249470   22.184935      10.0000    195.0840
   38   1 Pt  78       3.536383    1.169470   22.214934      10.0000    195.0840
   39   1 Pt  78       6.256383    1.249470   22.314936      10.0000    195.0840
   40   1 Pt  78       9.206383    1.119470   22.204935      10.0000    195.0840
   41   1 Pt  78      11.836384    1.109470   22.314936      10.0000    195.0840
   42   1 Pt  78      14.716384    1.249470   22.364935      10.0000    195.0840
   43   1 Pt  78       2.226383    3.679470   22.214934      10.0000    195.0840
   44   1 Pt  78       5.006383    3.699470   22.294935      10.0000    195.0840
   45   1 Pt  78       7.896383    3.599470   22.384936      10.0000    195.0840
   46   1 Pt  78      10.626383    3.559470   22.264933      10.0000    195.0840
   47   1 Pt  78      13.396382    3.569470   22.294935      10.0000    195.0840
   48   1 Pt  78      -0.523618    3.609470   22.264933      10.0000    195.0840
   49   1 Pt  78       3.646383    6.079470   22.104937      10.0000    195.0840
   50   1 Pt  78       6.476383    6.069470   22.244936      10.0000    195.0840
   51   1 Pt  78       9.306383    6.159470   22.314936      10.0000    195.0840
   52   1 Pt  78      12.076383    6.109470   22.194933      10.0000    195.0840
   53   1 Pt  78      -2.053618    6.049470   22.124933      10.0000    195.0840
   54   1 Pt  78       0.856382    6.179470   22.104937      10.0000    195.0840
   55   1 Pt  78       5.056383    8.579469   22.244936      10.0000    195.0840
   56   1 Pt  78       7.736382    8.439470   22.224936      10.0000    195.0840
   57   1 Pt  78      10.636384    8.489470   22.264933      10.0000    195.0840
   58   1 Pt  78      -3.453618    8.459471   22.174936      10.0000    195.0840
   59   1 Pt  78      -0.523618    8.509470   22.174936      10.0000    195.0840
   60   1 Pt  78       2.266382    8.559470   22.264933      10.0000    195.0840
   61   1 Pt  78       6.296383   11.049470   22.204935      10.0000    195.0840
   62   1 Pt  78       9.156382   10.939470   22.184935      10.0000    195.0840
   63   1 Pt  78      -4.883617   11.079470   22.144934      10.0000    195.0840
   64   1 Pt  78      -2.083618   10.949470   22.244936      10.0000    195.0840
   65   1 Pt  78       0.816382   10.959470   22.244936      10.0000    195.0840
   66   1 Pt  78       3.586382   10.899470   22.164934      10.0000    195.0840
   67   1 Pt  78       7.836383   13.429471   22.234938      10.0000    195.0840
   68   1 Pt  78      -6.253618   13.449470   22.104937      10.0000    195.0840
   69   1 Pt  78      -3.423618   13.319470   22.294935      10.0000    195.0840
   70   1 Pt  78      -0.703618   13.359469   22.164934      10.0000    195.0840
   71   1 Pt  78       2.076383   13.319470   22.194933      10.0000    195.0840
   72   1 Pt  78       4.986382   13.459471   22.304937      10.0000    195.0840
   73   1 Pt  78      -7.773618   14.269471   24.524935      10.0000    195.0840
   74   1 Pt  78      -4.943618   14.229470   24.424936      10.0000    195.0840
   75   1 Pt  78      -2.103618   14.129470   24.504934      10.0000    195.0840
   76   1 Pt  78       0.646382   14.109470   24.584936      10.0000    195.0840
   77   1 Pt  78       3.516382   14.179470   24.574934      10.0000    195.0840
   78   1 Pt  78       6.286383   14.229470   24.664934      10.0000    195.0840
   79   1 Pt  78       2.066382    2.109470   24.494936      10.0000    195.0840
   80   1 Pt  78       4.886383    2.089470   24.534933      10.0000    195.0840
   81   1 Pt  78       7.716383    2.049470   24.684939      10.0000    195.0840
   82   1 Pt  78      10.506383    1.839470   24.634936      10.0000    195.0840
   83   1 Pt  78      13.336383    2.019470   24.714934      10.0000    195.0840
   84   1 Pt  78      -0.773618    1.969470   24.524935      10.0000    195.0840
   85   1 Pt  78       3.596383    4.539470   24.444937      10.0000    195.0840
   86   1 Pt  78       6.326383    4.489470   24.564936      10.0000    195.0840
   87   1 Pt  78       9.186383    4.499470   24.604933      10.0000    195.0840
   88   1 Pt  78      11.866383    4.489470   24.554937      10.0000    195.0840
   89   1 Pt  78      -2.103618    4.419470   24.544935      10.0000    195.0840
   90   1 Pt  78       0.736382    4.509470   24.524935      10.0000    195.0840
   91   1 Pt  78       4.926383    6.949470   24.494936      10.0000    195.0840
   92   1 Pt  78       7.726383    6.849470   24.604933      10.0000    195.0840
   93   1 Pt  78      10.516383    7.049470   24.554937      10.0000    195.0840
   94   1 Pt  78      -3.583618    6.859470   24.584936      10.0000    195.0840
   95   1 Pt  78      -0.643618    6.829469   24.524935      10.0000    195.0840
   96   1 Pt  78       2.186382    6.869470   24.544935      10.0000    195.0840
   97   1 Pt  78       6.286383    9.419471   24.544935      10.0000    195.0840
   98   1 Pt  78       9.096383    9.389470   24.474936      10.0000    195.0840
   99   1 Pt  78      -4.893618    9.379471   24.484938      10.0000    195.0840
  100   1 Pt  78      -2.093618    9.309470   24.494936      10.0000    195.0840
  101   1 Pt  78       0.696382    9.309470   24.634936      10.0000    195.0840
  102   1 Pt  78       3.476383    9.379471   24.634936      10.0000    195.0840
  103   1 Pt  78       7.656382   11.829469   24.594935      10.0000    195.0840
  104   1 Pt  78      -6.403618   11.819470   24.404936      10.0000    195.0840
  105   1 Pt  78      -3.523618   11.739470   24.534933      10.0000    195.0840
  106   1 Pt  78      -0.723618   11.699469   24.584936      10.0000    195.0840
  107   1 Pt  78       2.036382   11.829469   24.594935      10.0000    195.0840
  108   1 Pt  78       4.826383   11.849471   24.564936      10.0000    195.0840
  109   1 Pt  78       2.056382    0.419470   26.722934      10.0000    195.0840
  110   1 Pt  78       4.866383    0.349470   26.752934      10.0000    195.0840
  111   1 Pt  78       7.626383    0.349470   26.932934      10.0000    195.0840
  112   1 Pt  78      10.396383    0.379470   26.942934      10.0000    195.0840
  113   1 Pt  78      13.246383    0.369470   26.972934      10.0000    195.0840
  114   1 Pt  78      16.006383    0.439470   26.942934      10.0000    195.0840
  115   1 Pt  78       3.506383    2.809469   26.822934      10.0000    195.0840
  116   1 Pt  78       6.236383    2.849470   26.912934      10.0000    195.0840
  117   1 Pt  78       9.016383    2.929470   26.902934      10.0000    195.0840
  118   1 Pt  78      11.806383    2.829470   26.872934      10.0000    195.0840
  119   1 Pt  78      14.656382    2.809469   26.982934      10.0000    195.0840
  120   1 Pt  78       0.676382    2.829470   26.792934      10.0000    195.0840
  121   1 Pt  78       4.826383    5.309469   26.842934      10.0000    195.0840
  122   1 Pt  78       7.616383    5.339470   26.832934      10.0000    195.0840
  123   1 Pt  78      10.416383    5.369470   26.882934      10.0000    195.0840
  124   1 Pt  78      13.116383    5.239470   26.882934      10.0000    195.0840
  125   1 Pt  78      -0.783618    5.249470   26.842934      10.0000    195.0840
  126   1 Pt  78       2.216382    5.189470   26.792934      10.0000    195.0840
  127   1 Pt  78       6.246383    7.809470   26.792934      10.0000    195.0840
  128   1 Pt  78       9.076383    7.799470   26.882934      10.0000    195.0840
  129   1 Pt  78      11.896382    7.739470   26.892934      10.0000    195.0840
  130   1 Pt  78      -2.173618    7.619469   26.882934      10.0000    195.0840
  131   1 Pt  78       0.666382    7.589470   26.862934      10.0000    195.0840
  132   1 Pt  78       3.476383    7.659470   26.852934      10.0000    195.0840
  133   1 Pt  78       7.746383   10.209471   26.812934      10.0000    195.0840
  134   1 Pt  78      10.436383   10.119469   26.772934      10.0000    195.0840
  135   1 Pt  78      -3.543618   10.079470   26.782934      10.0000    195.0840
  136   1 Pt  78      -0.763618   10.069470   26.922934      10.0000    195.0840
  137   1 Pt  78       1.966382   10.149470   26.922934      10.0000    195.0840
  138   1 Pt  78       4.806383   10.169470   26.862934      10.0000    195.0840
  139   1 Pt  78       9.146383   12.659470   26.842934      10.0000    195.0840
  140   1 Pt  78      -5.013618   12.479470   26.622934      10.0000    195.0840
  141   1 Pt  78      -2.173618   12.529470   26.862934      10.0000    195.0840
  142   1 Pt  78       0.596382   12.459471   26.922934      10.0000    195.0840
  143   1 Pt  78       3.406383   12.539470   26.972934      10.0000    195.0840
  144   1 Pt  78       6.266383   12.579470   26.902934      10.0000    195.0840
  145   1 Pt  78       0.676382    1.149470   29.232933      10.0000    195.0840
  146   1 Pt  78       3.476383    1.239470   29.132934      10.0000    195.0840
  147   1 Pt  78       6.306383    1.309470   29.342934      10.0000    195.0840
  148   1 Pt  78       9.166383    1.219470   29.252933      10.0000    195.0840
  149   1 Pt  78      11.996383    1.189470   29.142934      10.0000    195.0840
  150   1 Pt  78      14.866383    1.199470   29.192934      10.0000    195.0840
  151   1 Pt  78       2.206382    3.609470   29.132934      10.0000    195.0840
  152   1 Pt  78       4.916383    3.639470   29.242934      10.0000    195.0840
  153   1 Pt  78       7.716383    3.639470   29.202934      10.0000    195.0840
  154   1 Pt  78      10.536383    3.659470   29.182934      10.0000    195.0840
  155   1 Pt  78      13.356383    3.649470   29.132934      10.0000    195.0840
  156   1 Pt  78      -0.623618    3.679470   29.162934      10.0000    195.0840
  157   1 Pt  78       3.556383    5.959470   29.282934      10.0000    195.0840
  158   1 Pt  78       6.286383    6.129470   29.082934      10.0000    195.0840
  159   1 Pt  78       9.086383    6.169470   29.262934      10.0000    195.0840
  160   1 Pt  78      11.956384    6.099470   29.152934      10.0000    195.0840
  161   1 Pt  78      -2.183618    6.079470   29.142934      10.0000    195.0840
  162   1 Pt  78       0.716382    6.009470   29.162934      10.0000    195.0840
  163   1 Pt  78       4.846383    8.459471   29.032934      10.0000    195.0840
  164   1 Pt  78       7.746383    8.599470   29.082934      10.0000    195.0840
  165   1 Pt  78      10.526383    8.569470   29.222934      10.0000    195.0840
  166   1 Pt  78      -3.583618    8.589471   29.212934      10.0000    195.0840
  167   1 Pt  78      -0.823618    8.459471   29.242934      10.0000    195.0840
  168   1 Pt  78       2.066382    8.389470   29.162934      10.0000    195.0840
  169   1 Pt  78       6.216382   11.029470   29.122934      10.0000    195.0840
  170   1 Pt  78       9.136383   10.999470   29.172934      10.0000    195.0840
  171   1 Pt  78      -4.903618   10.969470   29.042934      10.0000    195.0840
  172   1 Pt  78      -2.153617   10.949470   29.262934      10.0000    195.0840
  173   1 Pt  78       0.616382   10.849471   29.272934      10.0000    195.0840
  174   1 Pt  78       3.406383   10.949470   29.262934      10.0000    195.0840
  175   1 Pt  78       7.626383   13.289469   29.332934      10.0000    195.0840
  176   1 Pt  78      -6.313618   13.399470   29.032934      10.0000    195.0840
  177   1 Pt  78      -3.533618   13.389470   29.042934      10.0000    195.0840
  178   1 Pt  78      -0.783618   13.509471   29.222934      10.0000    195.0840
  179   1 Pt  78       2.066382   13.409470   29.282934      10.0000    195.0840
  180   1 Pt  78       4.866383   13.369470   29.292934      10.0000    195.0840
  181   1 Pt  78      -7.873618   14.059470   31.612934      10.0000    195.0840
  182   1 Pt  78      -4.873618   14.039470   31.322934      10.0000    195.0840
  183   1 Pt  78      -2.153617   14.069470   31.672934      10.0000    195.0840
  184   1 Pt  78       0.706382   14.249471   31.572934      10.0000    195.0840
  185   1 Pt  78       3.486382   14.079470   31.612934      10.0000    195.0840
  186   1 Pt  78       6.226382   14.159470   31.762934      10.0000    195.0840
  187   1 Pt  78       2.186382    1.869470   31.562933      10.0000    195.0840
  188   1 Pt  78       4.956383    1.829470   31.692934      10.0000    195.0840
  189   1 Pt  78       7.776383    1.929470   31.612934      10.0000    195.0840
  190   1 Pt  78      10.616383    1.959470   31.542934      10.0000    195.0840
  191   1 Pt  78      13.366383    1.859470   31.492934      10.0000    195.0840
  192   1 Pt  78      -0.533618    1.959470   31.552934      10.0000    195.0840
  193   1 Pt  78       3.606383    4.369470   31.552934      10.0000    195.0840
  194   1 Pt  78       6.406382    4.299470   31.482934      10.0000    195.0840
  195   1 Pt  78       9.136383    4.319470   31.492934      10.0000    195.0840
  196   1 Pt  78      11.856383    4.359470   31.412934      10.0000    195.0840
  197   1 Pt  78      -2.133618    4.379470   31.452934      10.0000    195.0840
  198   1 Pt  78       0.906382    4.329469   31.562933      10.0000    195.0840
  199   1 Pt  78       5.016383    6.859470   31.392934      10.0000    195.0840
  200   1 Pt  78       7.676383    6.779470   31.682934      10.0000    195.0840
  201   1 Pt  78      10.576383    6.829469   31.722934      10.0000    195.0840
  202   1 Pt  78      -3.613618    6.839470   31.502934      10.0000    195.0840
  203   1 Pt  78      -0.773618    6.789470   31.472934      10.0000    195.0840
  204   1 Pt  78       2.076383    6.779470   31.532934      10.0000    195.0840
  205   1 Pt  78       6.456383    9.199470   31.392934      10.0000    195.0840
  206   1 Pt  78       9.086383    9.149470   31.592934      10.0000    195.0840
  207   1 Pt  78      -4.953618    9.389470   31.642934      10.0000    195.0840
  208   1 Pt  78      -2.053618    9.249471   31.722934      10.0000    195.0840
  209   1 Pt  78       0.776382    9.189470   31.492934      10.0000    195.0840
  210   1 Pt  78       3.536383    9.119470   31.382934      10.0000    195.0840
  211   1 Pt  78       7.696382   11.659470   31.472934      10.0000    195.0840
  212   1 Pt  78      -6.203618   11.729470   31.532934      10.0000    195.0840
  213   1 Pt  78      -3.503618   11.649470   31.552934      10.0000    195.0840
  214   1 Pt  78      -0.703618   11.679470   31.632934      10.0000    195.0840
  215   1 Pt  78       2.026383   11.659470   31.582934      10.0000    195.0840
  216   1 Pt  78       4.836383   11.599470   31.472934      10.0000    195.0840




 SCF PARAMETERS         Density guess:                                   RESTART
                        --------------------------------------------------------
                        max_scf:                                             500
                        max_scf_history:                                       0
                        max_diis:                                              4
                        --------------------------------------------------------
                        eps_scf:                                        1.00E-06
                        eps_scf_history:                                0.00E+00
                        eps_diis:                                       1.00E-01
                        eps_eigval:                                     1.00E-05
                        --------------------------------------------------------
                        level_shift [a.u.]:                             0.000000
                        added MOs                                       500    0
                        --------------------------------------------------------
                        Mixing method:                            BROYDEN_MIXING
                                                charge density mixing in g-space
                        --------------------------------------------------------
                        Smear method:                                FERMI_DIRAC
                        Electronic temperature [K]:                        300.0
                        Electronic temperature [a.u.]:                  9.50E-04
                        Accuracy threshold:                             1.00E-10
                        --------------------------------------------------------
                        No outer SCF

 PW_GRID| Information for grid number                                          1
 PW_GRID| Grid distributed over                                    32 processors
 PW_GRID| Real space group dimensions                                    32    1
 PW_GRID| the grid is blocked:                                                NO
 PW_GRID| Cutoff [a.u.]                                                    200.0
 PW_GRID| spherical cutoff:                                                   NO
 PW_GRID|   Bounds   1           -105     104                Points:         210
 PW_GRID|   Bounds   2           -105     104                Points:         210
 PW_GRID|   Bounds   3           -315     314                Points:         630
 PW_GRID| Volume element (a.u.^3)  0.3081E-02     Volume (a.u.^3)     85609.9578
 PW_GRID| Grid span                                                    FULLSPACE
 PW_GRID|   Distribution                         Average         Max         Min
 PW_GRID|   G-Vectors                           868218.8      868350      868140
 PW_GRID|   G-Rays                                4134.4        4135        4134
 PW_GRID|   Real Space Points                   868218.8      926100      793800

 PW_GRID| Information for grid number                                          2
 PW_GRID| Number of the reference grid                                         1
 PW_GRID| Grid distributed over                                    32 processors
 PW_GRID| Real space group dimensions                                    32    1
 PW_GRID| the grid is blocked:                                                NO
 PW_GRID| Cutoff [a.u.]                                                     66.7
 PW_GRID| spherical cutoff:                                                   NO
 PW_GRID|   Bounds   1            -60      59                Points:         120
 PW_GRID|   Bounds   2            -60      59                Points:         120
 PW_GRID|   Bounds   3           -180     179                Points:         360
 PW_GRID| Volume element (a.u.^3)  0.1651E-01     Volume (a.u.^3)     85609.9578
 PW_GRID| Grid span                                                    FULLSPACE
 PW_GRID|   Distribution                         Average         Max         Min
 PW_GRID|   G-Vectors                           162000.0      162840      161280
 PW_GRID|   G-Rays                                1350.0        1357        1344
 PW_GRID|   Real Space Points                   162000.0      172800      129600

 PW_GRID| Information for grid number                                          3
 PW_GRID| Number of the reference grid                                         1
 PW_GRID| Grid distributed over                                    32 processors
 PW_GRID| Real space group dimensions                                    32    1
 PW_GRID| the grid is blocked:                                                NO
 PW_GRID| Cutoff [a.u.]                                                     22.2
 PW_GRID| spherical cutoff:                                                   NO
 PW_GRID|   Bounds   1            -35      34                Points:          70
 PW_GRID|   Bounds   2            -35      34                Points:          70
 PW_GRID|   Bounds   3           -105     104                Points:         210
 PW_GRID| Volume element (a.u.^3)  0.8320E-01     Volume (a.u.^3)     85609.9578
 PW_GRID| Grid span                                                    FULLSPACE
 PW_GRID|   Distribution                         Average         Max         Min
 PW_GRID|   G-Vectors                            32156.2       32340       31990
 PW_GRID|   G-Rays                                 459.4         462         457
 PW_GRID|   Real Space Points                    32156.2       44100       29400

 PW_GRID| Information for grid number                                          4
 PW_GRID| Number of the reference grid                                         1
 PW_GRID| Grid distributed over                                    32 processors
 PW_GRID| Real space group dimensions                                    32    1
 PW_GRID| the grid is blocked:                                                NO
 PW_GRID| Cutoff [a.u.]                                                      7.4
 PW_GRID| spherical cutoff:                                                   NO
 PW_GRID|   Bounds   1            -20      19                Points:          40
 PW_GRID|   Bounds   2            -20      19                Points:          40
 PW_GRID|   Bounds   3            -60      59                Points:         120
 PW_GRID| Volume element (a.u.^3)  0.4459         Volume (a.u.^3)     85609.9578
 PW_GRID| Grid span                                                    FULLSPACE
 PW_GRID|   Distribution                         Average         Max         Min
 PW_GRID|   G-Vectors                             6000.0        6120        5920
 PW_GRID|   G-Rays                                 150.0         153         148
 PW_GRID|   Real Space Points                     6000.0        9600        4800

 POISSON| Solver                                          IMPLICIT (GENERALIZED)
 POISSON| Boundary Condition                                PERIODIC & DIRICHLET
 POISSON| Maximum number of iterations                                        30
 POISSON| Convergence threshold                                         1.00E-08
 POISSON| Dielectric Constant                                              80.00
 POISSON| Relaxation parameter                                          1.00E+00

 RS_GRID| Information for grid number                                          1
 RS_GRID|   Bounds   1           -105     104                Points:         210
 RS_GRID|   Bounds   2           -105     104                Points:         210
 RS_GRID|   Bounds   3           -315     314                Points:         630
 RS_GRID| Real space distribution over                                 32 groups
 RS_GRID| Real space distribution along direction                              3
 RS_GRID| Border size                                                         54
 RS_GRID|   Distribution                         Average         Max         Min
 RS_GRID|   Planes                                 127.7         128         127

 RS_GRID| Information for grid number                                          2
 RS_GRID|   Bounds   1            -60      59                Points:         120
 RS_GRID|   Bounds   2            -60      59                Points:         120
 RS_GRID|   Bounds   3           -180     179                Points:         360
 RS_GRID| Real space distribution over                                 32 groups
 RS_GRID| Real space distribution along direction                              3
 RS_GRID| Border size                                                         36
 RS_GRID|   Distribution                         Average         Max         Min
 RS_GRID|   Planes                                  83.2          84          83

 RS_GRID| Information for grid number                                          3
 RS_GRID|   Bounds   1            -35      34                Points:          70
 RS_GRID|   Bounds   2            -35      34                Points:          70
 RS_GRID|   Bounds   3           -105     104                Points:         210
 RS_GRID| Real space fully replicated
 RS_GRID| Group size                                                           1

 RS_GRID| Information for grid number                                          4
 RS_GRID|   Bounds   1            -20      19                Points:          40
 RS_GRID|   Bounds   2            -20      19                Points:          40
 RS_GRID|   Bounds   3            -60      59                Points:         120
 RS_GRID| Real space fully replicated
 RS_GRID| Group size                                                           1

 Number of electrons:                                                       2160
 Number of occupied orbitals:                                               1080
 Number of molecular orbitals:                                              1580

 Number of orbital functions:                                               4320
 Number of independent orbital functions:                                   4320

 Extrapolation method: initial_guess


 SCF WAVEFUNCTION OPTIMIZATION

  Step     Update method      Time    Convergence         Total energy    Change
  ------------------------------------------------------------------------------

  POISSON| IMPLICIT (GENERALIZED) SOLVER ---------------------------------------
  POISSON| Preparing Dirichlet regions ...
  POISSON| Dirichlet region    1
  POISSON|     type : axis-aligned planar
  POISSON|     applied potential :   0.0000E+00  [Eh/e]
  POISSON| Dirichlet region    2
  POISSON|     type : axis-aligned planar
  POISSON|     applied potential :  -0.3675E-01  [Eh/e]
  POISSON| ... Done. 
  ------------------------------------------------------------------------------

  POISSON|   iter        pres error      nabs error        E_hartree    delta E
  POISSON|      1        0.7355E-03      0.3271E-01    1992.6873510418  0.20E+04
  POISSON|      2        0.4301E-15      0.7355E-03    1992.6908496486  0.35E-02
  POISSON| Poisson solver converged in 2 iterations.
     1 NoMix/Diag. 0.30E+00   11.1     0.22384660     -5670.8098047321 -5.67E+03
  POISSON|   iter        pres error      nabs error        E_hartree    delta E
  POISSON|      1        0.7189E-03      0.3246E-01    1992.5048939305 -0.19E+00
  POISSON|      2        0.1253E-14      0.7189E-03    1992.5083137000  0.34E-02
  POISSON| Poisson solver converged in 2 iterations.
     2 Broy./Diag. 0.30E+00   13.2     0.24860004     -5670.3726211922  4.37E-01
  POISSON|   iter        pres error      nabs error        E_hartree    delta E
  POISSON|      1        0.4443E-04      0.3712E-03    1992.7140185719  0.21E+00
  POISSON|      2        0.6105E-16      0.4443E-04    1992.7142299310  0.21E-03
  POISSON| Poisson solver converged in 2 iterations.
     3 Broy./Diag. 0.30E+00   13.2     0.13320267     -5676.1522686321 -5.78E+00
  POISSON|   iter        pres error      nabs error        E_hartree    delta E
  POISSON|      1        0.7907E-04      0.3184E-03    1992.7588834708  0.45E-01
  POISSON|      2        0.6520E-16      0.7907E-04    1992.7585073512 -0.38E-03
  POISSON| Poisson solver converged in 2 iterations.
     4 Broy./Diag. 0.30E+00   13.3     0.15331554     -5673.1794155785  2.97E+00
  POISSON|   iter        pres error      nabs error        E_hartree    delta E
  POISSON|      1        0.5925E-04      0.2369E-03    1992.8502134580  0.92E-01
  POISSON|      2        0.2380E-16      0.5925E-04    1992.8504953161  0.28E-03
  POISSON| Poisson solver converged in 2 iterations.
     5 Broy./Diag. 0.30E+00   13.3     0.12855068     -5672.0895493148  1.09E+00
  POISSON|   iter        pres error      nabs error        E_hartree    delta E
  POISSON|      1        0.5836E-05      0.4524E-04    1992.9530349927  0.10E+00
  POISSON|      2        0.1001E-16      0.5836E-05    1992.9530072317 -0.28E-04
  POISSON| Poisson solver converged in 2 iterations.
     6 Broy./Diag. 0.30E+00   13.5     0.03915779     -5672.6829954443 -5.93E-01
  POISSON|   iter        pres error      nabs error        E_hartree    delta E
  POISSON|      1        0.1394E-05      0.3422E-04    1993.0442618935  0.91E-01
  POISSON|      2        0.8563E-17      0.1394E-05    1993.0442552639 -0.66E-05
  POISSON| Poisson solver converged in 2 iterations.
     7 Broy./Diag. 0.30E+00   13.4     0.03822899     -5672.3340566216  3.49E-01
  POISSON|   iter        pres error      nabs error        E_hartree    delta E
  POISSON|      1        0.8448E-06      0.2956E-04    1993.1107322280  0.66E-01
  POISSON|      2        0.4904E-17      0.8448E-06    1993.1107282094 -0.40E-05
  POISSON| Poisson solver converged in 2 iterations.
     8 Broy./Diag. 0.30E+00   13.4     0.02237336     -5672.1587757289  1.75E-01
  POISSON|   iter        pres error      nabs error        E_hartree    delta E
  POISSON|      1        0.6774E-06      0.1162E-04    1993.1408907312  0.30E-01
  POISSON|      2        0.1839E-17      0.6774E-06    1993.1408939535  0.32E-05
  POISSON| Poisson solver converged in 2 iterations.
     9 Broy./Diag. 0.30E+00   13.6     0.01213703     -5672.3598047230 -2.01E-01
  POISSON|   iter        pres error      nabs error        E_hartree    delta E
  POISSON|      1        0.3306E-06      0.5495E-05    1993.1531081654  0.12E-01
  POISSON|      2        0.6557E-18      0.3306E-06    1993.1531097382  0.16E-05
  POISSON| Poisson solver converged in 2 iterations.
    10 Broy./Diag. 0.30E+00   13.6     0.00410338     -5672.2519104441  1.08E-01
  POISSON|   iter        pres error      nabs error        E_hartree    delta E
  POISSON|      1        0.8300E-07      0.4809E-05    1993.1592402971  0.61E-02
  POISSON|      2        0.1701E-17      0.8300E-07    1993.1592399023 -0.39E-06
  POISSON| Poisson solver converged in 2 iterations.
    11 Broy./Diag. 0.30E+00   13.5     0.00411719     -5672.2412272522  1.07E-02
  POISSON|   iter        pres error      nabs error        E_hartree    delta E
  POISSON|      1        0.1870E-07      0.5346E-05    1993.1672112391  0.80E-02
  POISSON|      2        0.4358E-18      0.1870E-07    1993.1672113280  0.89E-07
  POISSON| Poisson solver converged in 2 iterations.
    12 Broy./Diag. 0.30E+00   13.6     0.00272875     -5672.2471775062 -5.95E-03
  POISSON|   iter        pres error      nabs error        E_hartree    delta E
  POISSON|      1        0.1069E-06      0.2903E-05    1993.1717909846  0.46E-02
  POISSON|      2        0.1410E-17      0.1069E-06    1993.1717914928  0.51E-06
  POISSON| Poisson solver converged in 2 iterations.
    13 Broy./Diag. 0.30E+00   13.5     0.00149984     -5672.2631543960 -1.60E-02
  POISSON|   iter        pres error      nabs error        E_hartree    delta E
  POISSON|      1        0.1211E-06      0.2003E-05    1993.1726170252  0.83E-03
  POISSON|      2        0.2219E-18      0.1211E-06    1993.1726176014  0.58E-06
  POISSON| Poisson solver converged in 2 iterations.
    14 Broy./Diag. 0.30E+00   13.5     0.00115249     -5672.2324691521  3.07E-02
  POISSON|   iter        pres error      nabs error        E_hartree    delta E
  POISSON|      1        0.4897E-06      0.2234E-05    1993.1728389174  0.22E-03
  POISSON|      2        0.3605E-17      0.4897E-06    1993.1728365880 -0.23E-05
  POISSON| Poisson solver converged in 2 iterations.
    15 Broy./Diag. 0.30E+00   13.5     0.00123816     -5672.2486439427 -1.62E-02
  POISSON|   iter        pres error      nabs error        E_hartree    delta E
  POISSON|      1        0.5785E-06      0.2458E-05    1993.1728333604 -0.32E-05
  POISSON|      2        0.1340E-17      0.5785E-06    1993.1728361122  0.28E-05
  POISSON| Poisson solver converged in 2 iterations.
    16 Broy./Diag. 0.30E+00   13.6     0.00138862     -5672.2470393282  1.60E-03
  POISSON|   iter        pres error      nabs error        E_hartree    delta E
  POISSON|      1        0.2303E-06      0.1727E-05    1993.1728885737  0.52E-04
  POISSON|      2        0.1279E-17      0.2303E-06    1993.1728874781 -0.11E-05
  POISSON| Poisson solver converged in 2 iterations.
    17 Broy./Diag. 0.30E+00   13.5     0.00076897     -5672.2522506780 -5.21E-03
  POISSON|   iter        pres error      nabs error        E_hartree    delta E
  POISSON|      1        0.2395E-07      0.1221E-05    1993.1729480762  0.61E-04
  POISSON|      2        0.3548E-17      0.2395E-07    1993.1729481902  0.11E-06
  POISSON| Poisson solver converged in 2 iterations.
    18 Broy./Diag. 0.30E+00   13.6     0.00027828     -5672.2503595880  1.89E-03
  POISSON|   iter        pres error      nabs error        E_hartree    delta E
  POISSON|      1        0.3160E-07      0.7334E-06    1993.1730775501  0.13E-03
  POISSON|      2        0.4642E-17      0.3160E-07    1993.1730773998 -0.15E-06
  POISSON| Poisson solver converged in 2 iterations.
    19 Broy./Diag. 0.30E+00   13.6     0.00018717     -5672.2518828577 -1.52E-03
  POISSON|   iter        pres error      nabs error        E_hartree    delta E
  POISSON|      1        0.2859E-08      0.6830E-06    1993.1733019836  0.22E-03
  POISSON| Poisson solver converged in 1 iteration. 
    20 Broy./Diag. 0.30E+00   12.1     0.00012986     -5672.2530569368 -1.17E-03
  POISSON|   iter        pres error      nabs error        E_hartree    delta E
  POISSON|      1        0.1565E-08      0.6220E-06    1993.1736697443  0.37E-03
  POISSON| Poisson solver converged in 1 iteration. 
    21 Broy./Diag. 0.30E+00   12.2     0.00014025     -5672.2536081086 -5.51E-04
  POISSON|   iter        pres error      nabs error        E_hartree    delta E
  POISSON|      1        0.9264E-08      0.7671E-06    1993.1740610760  0.39E-03
  POISSON| Poisson solver converged in 1 iteration. 
    22 Broy./Diag. 0.30E+00   12.2     0.00016320     -5672.2524668719  1.14E-03
  POISSON|   iter        pres error      nabs error        E_hartree    delta E
  POISSON|      1        0.7015E-08      0.6371E-06    1993.1743239592  0.26E-03
  POISSON| Poisson solver converged in 1 iteration. 
    23 Broy./Diag. 0.30E+00   12.1     0.00010845     -5672.2523706193  9.63E-05
  POISSON|   iter        pres error      nabs error        E_hartree    delta E
  POISSON|      1        0.6702E-08      0.5739E-06    1993.1746486674  0.32E-03
  POISSON| Poisson solver converged in 1 iteration. 
    24 Broy./Diag. 0.30E+00   12.1     0.00008195     -5672.2539244805 -1.55E-03
  POISSON|   iter        pres error      nabs error        E_hartree    delta E
  POISSON|      1        0.4124E-07      0.4526E-06    1993.1747889938  0.14E-03
  POISSON|      2        0.3442E-17      0.4124E-07    1993.1747891900  0.20E-06
  POISSON| Poisson solver converged in 2 iterations.
    25 Broy./Diag. 0.30E+00   13.5     0.00012709     -5672.2526709348  1.25E-03
  POISSON|   iter        pres error      nabs error        E_hartree    delta E
  POISSON|      1        0.7083E-07      0.3971E-06    1993.1748713504  0.82E-04
  POISSON|      2        0.1566E-17      0.7083E-07    1993.1748710134 -0.34E-06
  POISSON| Poisson solver converged in 2 iterations.
    26 Broy./Diag. 0.30E+00   13.5     0.00014671     -5672.2532854555 -6.15E-04
  POISSON|   iter        pres error      nabs error        E_hartree    delta E
  POISSON|      1        0.2952E-07      0.6171E-06    1993.1750443630  0.17E-03
  POISSON|      2        0.2482E-17      0.2952E-07    1993.1750445035  0.14E-06
  POISSON| Poisson solver converged in 2 iterations.
    27 Broy./Diag. 0.30E+00   13.6     0.00010190     -5672.2531092065  1.76E-04
  POISSON|   iter        pres error      nabs error        E_hartree    delta E
  POISSON|      1        0.1375E-07      0.4423E-06    1993.1751197758  0.75E-04
  POISSON|      2        0.3109E-17      0.1375E-07    1993.1751197104 -0.65E-07
  POISSON| Poisson solver converged in 2 iterations.
    28 Broy./Diag. 0.30E+00   13.6     0.00006187     -5672.2535045075 -3.95E-04
  POISSON|   iter        pres error      nabs error        E_hartree    delta E
  POISSON|      1        0.7600E-09      0.4088E-06    1993.1751705992  0.51E-04
  POISSON| Poisson solver converged in 1 iteration. 
    29 Broy./Diag. 0.30E+00   12.2     0.00004045     -5672.2535451659 -4.07E-05
  POISSON|   iter        pres error      nabs error        E_hartree    delta E
  POISSON|      1        0.5970E-08      0.4005E-06    1993.1751943069  0.24E-04
  POISSON| Poisson solver converged in 1 iteration. 
    30 Broy./Diag. 0.30E+00   12.1     0.00003548     -5672.2537632677 -2.18E-04
  POISSON|   iter        pres error      nabs error        E_hartree    delta E
  POISSON|      1        0.2612E-08      0.2769E-06    1993.1752029422  0.86E-05
  POISSON| Poisson solver converged in 1 iteration. 
    31 Broy./Diag. 0.30E+00   12.2     0.00002985     -5672.2540577098 -2.94E-04
  POISSON|   iter        pres error      nabs error        E_hartree    delta E
  POISSON|      1        0.5453E-08      0.4086E-06    1993.1752041645  0.12E-05
  POISSON| Poisson solver converged in 1 iteration. 
    32 Broy./Diag. 0.30E+00   12.3     0.00003173     -5672.2541027382 -4.50E-05
  POISSON|   iter        pres error      nabs error        E_hartree    delta E
  POISSON|      1        0.3076E-08      0.1705E-06    1993.1752099217  0.58E-05
  POISSON| Poisson solver converged in 1 iteration. 
    33 Broy./Diag. 0.30E+00   12.1     0.00003050     -5672.2544320324 -3.29E-04
  POISSON|   iter        pres error      nabs error        E_hartree    delta E
  POISSON|      1        0.3228E-08      0.2139E-06    1993.1752254854  0.16E-04
  POISSON| Poisson solver converged in 1 iteration. 
    34 Broy./Diag. 0.30E+00   12.1     0.00002167     -5672.2541765420  2.55E-04
  POISSON|   iter        pres error      nabs error        E_hartree    delta E
  POISSON|      1        0.7033E-08      0.1578E-06    1993.1752597529  0.34E-04
  POISSON| Poisson solver converged in 1 iteration. 
    35 Broy./Diag. 0.30E+00   12.2     0.00002262     -5672.2545571223 -3.81E-04
  POISSON|   iter        pres error      nabs error        E_hartree    delta E
  POISSON|      1        0.1626E-07      0.7684E-07    1993.1752562811 -0.35E-05
  POISSON|      2        0.7537E-18      0.1626E-07    1993.1752563584  0.77E-07
  POISSON| Poisson solver converged in 2 iterations.
    36 Broy./Diag. 0.30E+00   13.5     0.00003591     -5672.2542657661  2.91E-04
  POISSON|   iter        pres error      nabs error        E_hartree    delta E
  POISSON|      1        0.1477E-07      0.2448E-06    1993.1753037827  0.47E-04
  POISSON|      2        0.1546E-17      0.1477E-07    1993.1753037124 -0.70E-07
  POISSON| Poisson solver converged in 2 iterations.
    37 Broy./Diag. 0.30E+00   13.5     0.00002429     -5672.2543113917 -4.56E-05
  POISSON|   iter        pres error      nabs error        E_hartree    delta E
  POISSON|      1        0.1341E-08      0.1048E-06    1993.1753405898  0.37E-04
  POISSON| Poisson solver converged in 1 iteration. 
    38 Broy./Diag. 0.30E+00   12.1     0.00001765     -5672.2544047685 -9.34E-05
  POISSON|   iter        pres error      nabs error        E_hartree    delta E
  POISSON|      1        0.2652E-08      0.1116E-06    1993.1753681699  0.28E-04
  POISSON| Poisson solver converged in 1 iteration. 
    39 Broy./Diag. 0.30E+00   12.1     0.00001391     -5672.2542474549  1.57E-04
  POISSON|   iter        pres error      nabs error        E_hartree    delta E
  POISSON|      1        0.3389E-09      0.1024E-06    1993.1753902738  0.22E-04
  POISSON| Poisson solver converged in 1 iteration. 
    40 Broy./Diag. 0.30E+00   12.1     0.00001057     -5672.2542408510  6.60E-06
  POISSON|   iter        pres error      nabs error        E_hartree    delta E
  POISSON|      1        0.1200E-08      0.8367E-07    1993.1754062176  0.16E-04
  POISSON| Poisson solver converged in 1 iteration. 
    41 Broy./Diag. 0.30E+00   12.2     0.00000837     -5672.2542678672 -2.70E-05
  POISSON|   iter        pres error      nabs error        E_hartree    delta E
  POISSON|      1        0.8055E-09      0.9281E-07    1993.1754150963  0.89E-05
  POISSON| Poisson solver converged in 1 iteration. 
    42 Broy./Diag. 0.30E+00   12.1     0.00000651     -5672.2542311984  3.67E-05
  POISSON|   iter        pres error      nabs error        E_hartree    delta E
  POISSON|      1        0.7864E-09      0.9295E-07    1993.1754119532 -0.31E-05
  POISSON| Poisson solver converged in 1 iteration. 
    43 Broy./Diag. 0.30E+00   12.1     0.00000739     -5672.2542246583  6.54E-06
  POISSON|   iter        pres error      nabs error        E_hartree    delta E
  POISSON|      1        0.2810E-09      0.3592E-07    1993.1754109630 -0.99E-06
  POISSON| Poisson solver converged in 1 iteration. 
    44 Broy./Diag. 0.30E+00   12.1     0.00000684     -5672.2543190559 -9.44E-05
  POISSON|   iter        pres error      nabs error        E_hartree    delta E
  POISSON|      1        0.3653E-10      0.8560E-07    1993.1754012985 -0.97E-05
  POISSON| Poisson solver converged in 1 iteration. 
    45 Broy./Diag. 0.30E+00   12.1     0.00000575     -5672.2542184774  1.01E-04
  POISSON|   iter        pres error      nabs error        E_hartree    delta E
  POISSON|      1        0.5346E-08      0.2627E-07    1993.1754001807 -0.11E-05
  POISSON| Poisson solver converged in 1 iteration. 
    46 Broy./Diag. 0.30E+00   12.1     0.00001303     -5672.2543195431 -1.01E-04
  POISSON|   iter        pres error      nabs error        E_hartree    delta E
  POISSON|      1        0.4383E-08      0.6730E-07    1993.1753953453 -0.48E-05
  POISSON| Poisson solver converged in 1 iteration. 
    47 Broy./Diag. 0.30E+00   12.1     0.00001198     -5672.2542917360  2.78E-05
  POISSON|   iter        pres error      nabs error        E_hartree    delta E
  POISSON|      1        0.1583E-08      0.4490E-07    1993.1753883881 -0.70E-05
  POISSON| Poisson solver converged in 1 iteration. 
    48 Broy./Diag. 0.30E+00   12.1     0.00000555     -5672.2542927446 -1.01E-06
  POISSON|   iter        pres error      nabs error        E_hartree    delta E
  POISSON|      1        0.3195E-09      0.2415E-07    1993.1753883851 -0.30E-08
  POISSON| Poisson solver converged in 1 iteration. 
    49 Broy./Diag. 0.30E+00   12.1     0.00000421     -5672.2543301396 -3.74E-05
  POISSON|   iter        pres error      nabs error        E_hartree    delta E
  POISSON|      1        0.4007E-09      0.3730E-07    1993.1753886996  0.31E-06
  POISSON| Poisson solver converged in 1 iteration. 
    50 Broy./Diag. 0.30E+00   12.3     0.00000262     -5672.2543164010  1.37E-05
  POISSON|   iter        pres error      nabs error        E_hartree    delta E
  POISSON|      1        0.3739E-10      0.3755E-07    1993.1753890896  0.39E-06
  POISSON| Poisson solver converged in 1 iteration. 
    51 Broy./Diag. 0.30E+00   12.1     0.00000378     -5672.2543005429  1.59E-05
  POISSON|   iter        pres error      nabs error        E_hartree    delta E
  POISSON|      1        0.2955E-09      0.3125E-07    1993.1753924836  0.34E-05
  POISSON| Poisson solver converged in 1 iteration. 
    52 Broy./Diag. 0.30E+00   12.1     0.00000192     -5672.2543147949 -1.43E-05
  POISSON|   iter        pres error      nabs error        E_hartree    delta E
  POISSON|      1        0.3888E-09      0.3546E-07    1993.1753997211  0.72E-05
  POISSON| Poisson solver converged in 1 iteration. 
    53 Broy./Diag. 0.30E+00   12.1     0.00000170     -5672.2543033693  1.14E-05
  POISSON|   iter        pres error      nabs error        E_hartree    delta E
  POISSON|      1        0.5215E-10      0.1138E-07    1993.1754028631  0.31E-05
  POISSON| Poisson solver converged in 1 iteration. 
    54 Broy./Diag. 0.30E+00   12.2     0.00000253     -5672.2542810136  2.24E-05
  POISSON|   iter        pres error      nabs error        E_hartree    delta E
  POISSON|      1        0.3364E-09      0.2951E-07    1993.1754105488  0.77E-05
  POISSON| Poisson solver converged in 1 iteration. 
    55 Broy./Diag. 0.30E+00   12.1     0.00000197     -5672.2543174523 -3.64E-05
  POISSON|   iter        pres error      nabs error        E_hartree    delta E
  POISSON|      1        0.7409E-09      0.7600E-08    1993.1754118774  0.13E-05
  POISSON| Poisson solver converged in 1 iteration. 
    56 Broy./Diag. 0.30E+00   12.2     0.00000233     -5672.2542802942  3.72E-05
  POISSON|   iter        pres error      nabs error        E_hartree    delta E
  POISSON|      1        0.7999E-09      0.1610E-07    1993.1754151663  0.33E-05
  POISSON| Poisson solver converged in 1 iteration. 
    57 Broy./Diag. 0.30E+00   12.1     0.00000168     -5672.2542923279 -1.20E-05
  POISSON|   iter        pres error      nabs error        E_hartree    delta E
  POISSON|      1        0.3550E-09      0.1562E-07    1993.1754169057  0.17E-05
  POISSON| Poisson solver converged in 1 iteration. 
    58 Broy./Diag. 0.30E+00   12.1     0.00000131     -5672.2542913990  9.29E-07
  POISSON|   iter        pres error      nabs error        E_hartree    delta E
  POISSON|      1        0.3212E-09      0.9011E-08    1993.1754173946  0.49E-06
  POISSON| Poisson solver converged in 1 iteration. 
    59 Broy./Diag. 0.30E+00   12.2     0.00000165     -5672.2542904280  9.71E-07
  POISSON|   iter        pres error      nabs error        E_hartree    delta E
  POISSON|      1        0.5928E-10      0.1739E-07    1993.1754180186  0.62E-06
  POISSON| Poisson solver converged in 1 iteration. 
    60 Broy./Diag. 0.30E+00   12.1     0.00000102     -5672.2542995346 -9.11E-06
  POISSON|   iter        pres error      nabs error        E_hartree    delta E
  POISSON|      1        0.1280E-09      0.1048E-07    1993.1754183685  0.35E-06
  POISSON| Poisson solver converged in 1 iteration. 
    61 Broy./Diag. 0.30E+00   12.2     0.00000116     -5672.2543059779 -6.44E-06
  POISSON|   iter        pres error      nabs error        E_hartree    delta E
  POISSON|      1        0.2653E-10      0.8694E-08    1993.1754180685 -0.30E-06
  POISSON| Poisson solver converged in 1 iteration. 
    62 Broy./Diag. 0.30E+00   12.2     0.00000067     -5672.2543035952  2.38E-06

  *** SCF run converged in    62 steps ***


  Electronic density on regular grids:      -2159.9999999992        0.0000000008
  Core density on regular grids:             2159.9999999995       -0.0000000005
  Total charge density on r-space grids:        0.0000000003
  Total charge density g-space grids:           0.0000000003

  Overlap energy of the core charge distribution:               0.00003198445127
  Self energy of the core charge distribution:              -9891.63555570741482
  Core Hamiltonian energy:                                   3201.88454177162839
  Hartree energy:                                            1993.17541806849454
  Electric enthalpy:                                         1993.16841215260251
  Exchange-correlation energy:                               -970.94806964004442
  Dispersion energy:                                           -4.68999261434381
  Electronic entropic energy:                                  -0.03367153671375
  Fermi energy:                                                -0.18992372562519

  Total energy:                                             -5672.25430359517850

 The electron density is written in cube file format to the file:

 cp2k-ELECTRON_DENSITY-1_0.cube

 !-----------------------------------------------------------------------------!
                     Mulliken Population Analysis

 #  Atom  Element  Kind  Atomic population                           Net charge
       1     Pt       1         10.016619                             -0.016619
       2     Pt       1         10.034936                             -0.034936
       3     Pt       1         10.039422                             -0.039422
       4     Pt       1         10.061521                             -0.061521
       5     Pt       1         10.071568                             -0.071568
       6     Pt       1         10.058664                             -0.058664
       7     Pt       1         10.054991                             -0.054991
       8     Pt       1         10.060943                             -0.060943
       9     Pt       1         10.046449                             -0.046449
      10     Pt       1         10.052069                             -0.052069
      11     Pt       1         10.058401                             -0.058401
      12     Pt       1         10.038527                             -0.038527
      13     Pt       1         10.048539                             -0.048539
      14     Pt       1         10.063451                             -0.063451
      15     Pt       1         10.043802                             -0.043802
      16     Pt       1         10.048675                             -0.048675
      17     Pt       1         10.057364                             -0.057364
      18     Pt       1         10.043207                             -0.043207
      19     Pt       1         10.038845                             -0.038845
      20     Pt       1         10.055814                             -0.055814
      21     Pt       1         10.035704                             -0.035704
      22     Pt       1         10.055077                             -0.055077
      23     Pt       1         10.046160                             -0.046160
      24     Pt       1         10.049095                             -0.049095
      25     Pt       1         10.067206                             -0.067206
      26     Pt       1         10.052024                             -0.052024
[...]
    191      1      Pt          0.00562786     0.01462125    -0.00328491
    192      1      Pt         -0.02005373     0.00350864     0.00087255
    193      1      Pt          0.00481430    -0.00521664     0.00709947
    194      1      Pt         -0.00828266     0.01036647     0.00971389
    195      1      Pt          0.00042567     0.01230541     0.00389858
    196      1      Pt          0.01836869     0.00891524     0.00856077
    197      1      Pt          0.00501397    -0.00387274    -0.00479091
    198      1      Pt         -0.01879025     0.00008110    -0.00801431
    199      1      Pt         -0.00685773    -0.01247222     0.01239828
    200      1      Pt          0.01848787    -0.00466625    -0.01430558
    201      1      Pt         -0.00996915    -0.00089956    -0.01546252
    202      1      Pt          0.01113086     0.00315498    -0.00107318
    203      1      Pt          0.00644651    -0.00127008     0.00191496
    204      1      Pt          0.00438597    -0.00171768    -0.00078815
    205      1      Pt         -0.01997044     0.00780813    -0.00026449
    206      1      Pt          0.01624255     0.00963715    -0.00479517
    207      1      Pt          0.00189287    -0.02273230    -0.00916032
    208      1      Pt         -0.00792245    -0.00102517    -0.01221217
    209      1      Pt         -0.01313650     0.00068216     0.00689179
    210      1      Pt          0.00026824     0.01347642     0.00745720
    211      1      Pt          0.00162389    -0.00567291     0.01007486
    212      1      Pt         -0.02231999    -0.00107304    -0.01288969
    213      1      Pt          0.00696861     0.00142541    -0.00272909
    214      1      Pt         -0.00033232     0.00573633    -0.00852797
    215      1      Pt          0.00589957     0.00629638    -0.00146115
    216      1      Pt          0.00688856     0.00430929     0.01129027
 SUM OF ATOMIC FORCES           0.00003069     0.00005989     0.00009059     0.00011285

 -------------------------------------------------------------------------------
 -                                                                             -
 -                                DBCSR STATISTICS                             -
 -                                                                             -
 -------------------------------------------------------------------------------
 COUNTER                                    TOTAL       BLAS       SMM       ACC
 flops    20 x    12 x    20            447897600       0.0%    100.0%      0.0%
 flops    20 x    32 x    20          58525286400       0.0%    100.0%      0.0%
 flops    20 x    20 x   204         244784332800       0.0%    100.0%      0.0%
 flops    20 x    20 x   224         268782796800       0.0%    100.0%      0.0%
 flops    20 x    20 x   192        1382311526400       0.0%    100.0%      0.0%
 flops inhomo. stacks                           0       0.0%      0.0%      0.0%
 flops total                         1.954852E+12       0.0%    100.0%      0.0%
 flops max/rank                     62.737357E+09       0.0%    100.0%      0.0%
 matmuls inhomo. stacks                         0       0.0%      0.0%      0.0%
 matmuls total                           14332032       0.0%    100.0%      0.0%
 number of processed stacks                 18816       0.0%    100.0%      0.0%
 average stack size                                     0.0     761.7       0.0
 marketing flops                     2.782601E+12
 -------------------------------------------------------------------------------
 # multiplications                             65
 max memory usage/rank               1.823130E+09
 # max total images/rank                        2
 # max 3D layers                                1
 # MPI messages exchanged                   27040
 MPI messages size (bytes):
  total size                        36.155982E+09
  min size                         829.440000E+03
  max size                           4.665600E+06
  average size                       1.337130E+06
 MPI breakdown and total messages size (bytes):
             size <=      128                   0                        0
       128 < size <=     8192                   0                        0
      8192 < size <=    32768                   0                        0
     32768 < size <=   131072                   0                        0
    131072 < size <=  4194304               26816              35110886400
   4194304 < size <= 16777216                 224               1045094400
  16777216 < size                               0                        0
 -------------------------------------------------------------------------------

 *** WARNING in dbcsr_mm.F:290 :: Using a non-square number of MPI ranks ***
 *** might lead to poor performance. Used ranks: 32 Suggested: 36 64     ***

 -------------------------------------------------------------------------------
 -                                                                             -
 -                      DBCSR MESSAGE PASSING PERFORMANCE                      -
 -                                                                             -
 -------------------------------------------------------------------------------
 ROUTINE             CALLS      AVE VOLUME [Bytes]
 MP_Bcast                6                     12.
 MP_Allreduce          478                      9.
 MP_Alltoall          1801                1275169.
 MP_ISend             2080                 578664.
 MP_IRecv             2080                 561679.
 -------------------------------------------------------------------------------

 -------------------------------------------------------------------------------
 -                                                                             -
 -                                DBM STATISTICS                               -
 -                                                                             -
 -------------------------------------------------------------------------------
    M  x    N  x    K                                          COUNT     PERCENT
 -------------------------------------------------------------------------------

 -------------------------------------------------------------------------------
 -                                                                             -
 -                                GRID STATISTICS                              -
 -                                                                             -
 -------------------------------------------------------------------------------
 LP    KERNEL             BACKEND                              COUNT     PERCENT
 4     collocate general  REF                               21437703      49.97%
 4     integrate general  REF                               21097422      49.17%
 5     integrate general  REF                                 340281       0.79%
 0     collocate general  REF                                  13824       0.03%
 0     integrate general  REF                                   6912       0.02%
 1     integrate general  REF                                   6912       0.02%
 -------------------------------------------------------------------------------

 MEMORY| Estimated peak process memory [MiB]                                2138

 -------------------------------------------------------------------------------
 ----                             MULTIGRID INFO                            ----
 -------------------------------------------------------------------------------
 count for grid        1:          17555          cutoff [a.u.]          200.00
 count for grid        2:         177581          cutoff [a.u.]           66.67
 count for grid        3:         109682          cutoff [a.u.]           22.22
 count for grid        4:         155086          cutoff [a.u.]            7.41
 total gridlevel count  :         459904

 -------------------------------------------------------------------------------
 -                                                                             -
 -                         MESSAGE PASSING PERFORMANCE                         -
 -                                                                             -
 -------------------------------------------------------------------------------

 ROUTINE             CALLS      AVE VOLUME [Bytes]
 MP_Group                4
 MP_Bcast             1768                 164714.
 MP_Allreduce         1576                   1604.
 MP_Sync                68
 MP_Alltoall          3041               49257668.
 MP_SendRecv           124                  14976.
 MP_ISendRecv         7812                 214800.
 MP_Wait             18942
 MP_comm_split           1
 MP_ISend             9980                 715119.
 MP_IRecv             9980                 715119.
 MP_Recv               192                1105920.
 MP_Write_All            3                4213860.
 -------------------------------------------------------------------------------


 -------------------------------------------------------------------------------
 -                                                                             -
 -                           R E F E R E N C E S                               -
 -                                                                             -
 -------------------------------------------------------------------------------
 
 CP2K version 2022.1, the CP2K developers group (2022).
 CP2K is freely available from https://www.cp2k.org/ .

 Kuehne,Thomas D.; Iannuzzi,Marcella; Del Ben,Mauro;
 Rybkin,Vladimir V.; Seewald,Patrick; Stein,Frederick; Laino,Teodoro;
 Khaliullin,Rustam Z.; Schuett,Ole; Schiffmann,Florian; Golze,Dorothea;
 Wilhelm,Jan; Chulkov,Sergey; Bani-Hashemian,Mohammad Hossein;
 Weber,Valery; Borstnik,Urban; Taillefumier,Mathieu;
 Jakobovits,Alice Shoshana; Lazzaro,Alfio; Pabst,Hans; Mueller,Tiziano;
 Schade,Robert; Guidon,Manuel; Andermatt,Samuel; Holmberg,Nico;
 Schenter,Gregory K.; Hehn,Anna; Bussy,Augustin; Belleflamme,Fabian;
 Tabacchi,Gloria; Gloess,Andreas; Lass,Michael; Bethune,Iain;
 Mundy,Christopher J.; Plessl,Christian; Watkins,Matt;
 VandeVondele,Joost; Krack,Matthias; Hutter,Juerg. 
 The Journal of Chemical Physics, 152 (19), (2020). 
 CP2K: An electronic structure and molecular dynamics software package -
 Quickstep: Efficient and accurate electronic structure calculations.
 https://doi.org/10.1063/5.0007045

 Goerigk, Lars; Hansen, Andreas; Bauer, Christoph; Ehrlich, Stephan;
 Najibi, Asim; Grimme, Stefan. , 19 (48), (2017). 
 A look at the density functional theory zoo with the advanced GMTKN55 database
 for general main group thermochemistry, kinetics and noncovalent interactions.
 https://doi.org/10.1039/C7CP04913G

 Bani-Hashemian, MH; Bruck, S; Luisier, M; VandeVondele, J. 
 JOURNAL OF CHEMICAL PHYSICS, 144 (4), 044113 (2016). 
 A generalized Poisson solver for first-principles device simulations.
 https://doi.org/10.1063/1.4940796

 Schuett, Ole; Messmer, Peter; Hutter, Juerg; VandeVondele, Joost. 
 Electronic Structure Calculations on Graphics Processing Units, John
 Wiley & Sons, Ltd, 173-190 (2016). 
 GPU-Accelerated Sparse Matrix-Matrix Multiplication for
 Linear Scaling Density Functional Theory.
 https://doi.org/10.1002/9781118670712.ch8

 Heinecke, A; Henry, G; Hutchinson, M; Pabst, H. 
 Proceedings of Intl. Supercomputing Conference, 981-991 (2016). 
 LIBXSMM: Accelerating Small Matrix Multiplications
 by Runtime Code Generation.
 https://doi.org/10.1109/SC.2016.83

 Borstnik, U; VandeVondele, J; Weber, V; Hutter, J. 
 PARALLEL COMPUTING, 40 (5-6), 47-58 (2014). 
 Sparse matrix multiplication: The distributed block-compressed sparse
 row library.
 https://doi.org/10.1016/j.parco.2014.03.012

 Hutter, J; Iannuzzi, M; Schiffmann, F; VandeVondele, J. 
 WIREs Comput Mol Sci., 4 (1), 15-25 (2014). 
 CP2K: atomistic simulations of condensed matter systems.
 https://doi.org/10.1002/wcms.1159

 Marek, A; Blum, V; Johanni, R; Havu, V; Lang, B; Auckenthaler, T;
 Heinecke, A; Bungartz, H; Lederer, H. 
 Journal of Physics: Condensed Matter, 26 (21), (2014). 
 The ELPA library: scalable parallel eigenvalue solutions for
 electronic structure
 theory and computational science.
 https://doi.org/10.1088/0953-8984/26/21/213201

 Grimme, S; Ehrlich, S; Goerigk, L. 
 JOURNAL OF COMPUTATIONAL CHEMISTRY, 32, 1456 (2011). 
 Effect of the damping function in dispersion corrected density functional theory.
 https://doi.org/10.1002/jcc.21759

 Grimme, S; Antony, J; Ehrlich, S; Krieg, H. 
 JOURNAL OF CHEMICAL PHYSICS, 132 (15), 154104 (2010). 
 A consistent and accurate ab initio parametrization of density
 functional dispersion correction (DFT-D) for the 94 elements H-Pu.
 https://doi.org/10.1063/1.3382344

 VandeVondele, J; Hutter, J. 
 JOURNAL OF CHEMICAL PHYSICS, 127 (11), 114105 (2007). 
 Gaussian basis sets for accurate calculations on molecular systems in
 gas and condensed phases.
 https://doi.org/10.1063/1.2770708

 Krack, M. 
 THEORETICAL CHEMISTRY ACCOUNTS, 114 (1-3), 145-152 (2005). 
 Pseudopotentials for H to Kr optimized for gradient-corrected
 exchange-correlation functionals.
 https://doi.org/10.1007/s00214-005-0655-y

 VandeVondele, J; Krack, M; Mohamed, F; Parrinello, M; Chassaing, T;
 Hutter, J. COMPUTER PHYSICS COMMUNICATIONS, 167 (2), 103-128 (2005). 
 QUICKSTEP: Fast and accurate density functional calculations using a
 mixed Gaussian and plane waves approach.
 https://doi.org/10.1016/j.cpc.2004.12.014

 Frigo, M; Johnson, SG. 
 PROCEEDINGS OF THE IEEE, 93 (2), 216-231 (2005). 
 The design and implementation of FFTW3.
 https://doi.org/10.1109/JPROC.2004.840301

 Hartwigsen, C; Goedecker, S; Hutter, J. 
 PHYSICAL REVIEW B, 58 (7), 3641-3662 (1998). 
 Relativistic separable dual-space Gaussian pseudopotentials from H to Rn.
 https://doi.org/10.1103/PhysRevB.58.3641

 Lippert, G; Hutter, J; Parrinello, M. 
 MOLECULAR PHYSICS, 92 (3), 477-487 (1997). 
 A hybrid Gaussian and plane wave density functional scheme.
 https://doi.org/10.1080/002689797170220

 Perdew, JP; Burke, K; Ernzerhof, M. 
 PHYSICAL REVIEW LETTERS, 77 (18), 3865-3868 (1996). 
 Generalized gradient approximation made simple.
 https://doi.org/10.1103/PhysRevLett.77.3865

 Goedecker, S; Teter, M; Hutter, J. 
 PHYSICAL REVIEW B, 54 (3), 1703-1710 (1996). 
 Separable dual-space Gaussian pseudopotentials.
 https://doi.org/10.1103/PhysRevB.54.1703


 -------------------------------------------------------------------------------
 -                                                                             -
 -                                T I M I N G                                  -
 -                                                                             -
 -------------------------------------------------------------------------------
 SUBROUTINE                       CALLS  ASD         SELF TIME        TOTAL TIME
                                MAXIMUM       AVERAGE  MAXIMUM  AVERAGE  MAXIMUM
 CP2K                                 1  1.0    0.023    0.041  808.605  808.606
 qs_forces                            1  2.0    0.001    0.001  808.195  808.196
 qs_energies                          1  3.0    0.000    0.000  795.209  795.211
 scf_env_do_scf                       1  4.0    0.000    0.000  786.942  787.033
 scf_env_do_scf_inner_loop           62  5.0    0.003    0.005  786.939  787.030
 rebuild_ks_matrix                   63  7.0    0.000    0.000  499.554  499.582
 qs_ks_build_kohn_sham_matrix        63  8.0    0.009    0.010  499.553  499.582
 qs_ks_update_qs_env                 62  6.0    0.000    0.001  491.057  491.085
 pw_transfer                       2900 12.1    0.221    0.277  278.602  281.291
 fft_wrap_pw1pw2                   2900 13.1    0.031    0.036  278.380  281.038
 fft_wrap_pw1pw2_200               2522 14.4   23.787   26.550  275.622  278.210
 pw_poisson_solve                    63  9.0    0.018    0.025  236.845  236.895
 implicit_poisson_solver_mixed_      63 10.0    6.362    6.898  222.403  222.538
 fft3d_ps                          2900 15.1  118.586  127.730  207.320  210.472
 qs_rho_update_rho_low               63  6.0    0.001    0.001  190.457  190.472
 calculate_rho_elec                  63  7.0    0.345    0.368  190.456  190.471
 sum_up_and_integrate                63  9.0    0.980    1.060  179.980  180.023
 integrate_v_rspace                  63 10.0    0.002    0.002  178.999  179.117
 grid_collocate_task_list            63  8.0   84.337  164.711   84.337  164.711
 derive_fft                         302 12.2    0.022    0.026  156.327  157.388
 grid_integrate_task_list            63 11.0   78.283  153.321   78.283  153.321
 rs_pw_transfer                     508 10.5    0.006    0.007  105.341  131.853
 density_rs2pw                       63  8.0    0.004    0.005  104.394  130.993
 apply_P_operator                   239 11.2    2.243    2.569  126.190  126.927
 mp_waitany                        9980 12.4   87.811  114.362   87.811  114.362
 rs_pw_transfer_RS2PW_200            65 10.0    3.630    4.258   86.307  112.810
 mp_alltoall_d11v                   898 10.3   77.588  102.339   77.588  102.339
 rs_gather_matrices                  63 11.0    0.238    0.270   76.439  101.025
 qs_scf_new_mos                      62  6.0    0.008    0.011   78.410   78.523
 qs_vxc_create                       63  9.0    0.002    0.003   74.415   75.248
 xc_vxc_pw_create                    63 10.0    1.694    2.100   74.413   75.246
 eigensolver                         62  7.0    0.005    0.009   70.680   70.756
 x_to_yz                           1814 16.3   39.516   44.986   60.632   62.468
 mp_alltoall_z22v                  2900 17.1   37.745   57.198   37.745   57.198
 xc_pw_derive                       378 12.0    0.006    0.008   50.202   52.929
 apply_poisson_operator_fft          63 11.0    0.001    0.001   48.025   48.296
 cp_fm_diag_elpa                     63  8.0    0.001    0.001   44.859   44.984
 cp_fm_diag_elpa_base                63  9.0   43.926   44.062   44.759   44.823
 xc_rho_set_and_dset_create          63 11.0    0.728    0.887   38.812   39.600
 yz_to_x                           1086 15.8   11.404   11.966   28.033   39.206
 apply_inv_laplace_operator_fft     153 11.6    1.295    1.421   33.731   34.737
 xc_pw_divergence                    63 11.0    0.003    0.004   32.929   34.677
 pw_scatter_p                      1814 15.3   30.653   34.383   30.653   34.383
 ps_implicit_compute_veps            63 11.0    0.759    0.889   33.143   33.827
 gspace_mixing                       61  6.0    0.334    0.359   29.559   29.559
 pw_derive                         1284 13.1   24.557   25.599   24.557   25.599
 cp_fm_triangular_multiply          186  8.0   25.063   25.285   25.063   25.285
 potential_pw2rs                     63 11.0    0.051    0.060   24.264   24.367
 ps_implicit_compute_error_fft       88 11.0    1.634    1.738   21.695   23.117
 broyden_mixing                      61  7.0   21.599   21.999   22.143   22.203
 pw_gather_p                       1086 14.8   16.306   16.979   16.306   16.979
 -------------------------------------------------------------------------------

 The number of warnings for this run is : 1
 
 -------------------------------------------------------------------------------
  **** **** ******  **  PROGRAM ENDED AT                 2023-12-02 22:47:58.880
 ***** ** ***  *** **   PROGRAM RAN ON                                     cu042
 **    ****   ******    PROGRAM RAN BY                                     jxzhu
 ***** **    ** ** **   PROGRAM PROCESS ID                                 28493
  **** **  *******  **  PROGRAM STOPPED IN /public/home/jxzhu/tmp_calc/04c0855f9
                                           8753fac23fde4df51ba20f3741a9e9a/calc/
                                           task.000.000015
