 DBCSR| CPU Multiplication driver                                           XSMM
 DBCSR| Multrec recursion limit                                              512
 DBCSR| Multiplication stack size                                           1000
 DBCSR| Maximum elements for images                                    UNLIMITED
 DBCSR| Multiplicative factor virtual images                                   1
 DBCSR| Use multiplication densification                                       T
 DBCSR| Multiplication size stacks                                             3
 DBCSR| Use memory pool for CPU allocation                                     F
 DBCSR| Number of 3D layers                                               SINGLE
 DBCSR| Use MPI memory allocation                                              F
 DBCSR| Use RMA algorithm                                                      F
 DBCSR| Use Communication thread                                               T
 DBCSR| Communication thread load                                             87
 DBCSR| MPI: My node id                                                        0
 DBCSR| MPI: Number of nodes                                                  64
 DBCSR| OMP: Current number of threads                                         1
 DBCSR| OMP: Max number of threads                                             1
 DBCSR| Split modifier for TAS multiplication algorithm                  1.0E+00


  **** **** ******  **  PROGRAM STARTED AT               2023-11-26 17:08:44.914
 ***** ** ***  *** **   PROGRAM STARTED ON                                 cu054
 **    ****   ******    PROGRAM STARTED BY                                 jxzhu
 ***** **    ** ** **   PROGRAM PROCESS ID                                 41935
  **** **  *******  **  PROGRAM STARTED IN /public/home/jxzhu/tmp_calc/af2075565
                                           805657d94fa4669dad6f4b174b0a4fb/calc/
                                           000500.000/pbc

 CP2K| version string:                                       CP2K version 2022.1
 CP2K| source code revision number:                                  git:2caeb6f
 CP2K| cp2kflags: omp libint fftw3 libxc elpa parallel mpi3 scalapack cosma xsmm
 CP2K|             plumed2 spglib mkl sirius libvori libbqb
 CP2K| is freely available from                            https://www.cp2k.org/
 CP2K| Program compiled at                           Mon Jul 3 17:37:06 CST 2023
 CP2K| Program compiled on                                                 mu003
 CP2K| Program compiled for                                                local
 CP2K| Data directory path                             /public/home/jxzhu/basis/
 CP2K| Input file name                                                 input.inp
 
 GLOBAL| Force Environment number                                              1
 GLOBAL| Basis set file name                                        BASIS_MOLOPT
 GLOBAL| Potential file name                                      GTH_POTENTIALS
 GLOBAL| MM Potential file name                                     MM_POTENTIAL
 GLOBAL| Coordinate file name                                          coord.xyz
 GLOBAL| Method name                                                        CP2K
 GLOBAL| Project name                                                       cp2k
 GLOBAL| Run type                                                   ENERGY_FORCE
 GLOBAL| FFT library                                                       FFTW3
 GLOBAL| Diagonalization library                                            ELPA
 GLOBAL| Minimum number of eigenvectors for ELPA usage                        16
 GLOBAL| Orthonormality check for eigenvectors                          DISABLED
 GLOBAL| Matrix multiplication library                                     COSMA
 GLOBAL| All-to-all communication in single precision                          F
 GLOBAL| FFTs using library dependent lengths                                  F
 GLOBAL| Grid backend                                                       AUTO
 GLOBAL| Global print level                                               MEDIUM
 GLOBAL| MPI I/O enabled                                                       T
 GLOBAL| Total number of message passing processes                            64
 GLOBAL| Number of threads for this process                                    1
 GLOBAL| This output is from process                                           0
 GLOBAL| Stack size for threads created by OpenMP (OMP_STACKSIZE)        default
 GLOBAL| CPU model name                 Intel(R) Xeon(R) Gold 6338 CPU @ 2.00GHz
 GLOBAL| CPUID                                                              1003

 MEMORY| system memory details [Kb]
 MEMORY|                        rank 0           min           max       average
 MEMORY| MemTotal            263619172     263619172     263619172     263619172
 MEMORY| MemFree             213263460     213263460     213269040     213264041
 MEMORY| Buffers                  3320          3320          3320          3320
 MEMORY| Cached                1816492       1816492       1816492       1816492
 MEMORY| Slab                  1492292       1492292       1492292       1492292
 MEMORY| SReclaimable           231728        231728        231728        231728
 MEMORY| MemLikelyFree       215315000     215315000     215320580     215315581


 *** Fundamental physical constants (SI units) ***

 *** Literature: B. J. Mohr and B. N. Taylor,
 ***             CODATA recommended values of the fundamental physical
 ***             constants: 2006, Web Version 5.1
 ***             http://physics.nist.gov/constants

 Speed of light in vacuum [m/s]                             2.99792458000000E+08
 Magnetic constant or permeability of vacuum [N/A**2]       1.25663706143592E-06
 Electric constant or permittivity of vacuum [F/m]          8.85418781762039E-12
 Planck constant (h) [J*s]                                  6.62606896000000E-34
 Planck constant (h-bar) [J*s]                              1.05457162825177E-34
 Elementary charge [C]                                      1.60217648700000E-19
 Electron mass [kg]                                         9.10938215000000E-31
 Electron g factor [ ]                                     -2.00231930436220E+00
 Proton mass [kg]                                           1.67262163700000E-27
 Fine-structure constant                                    7.29735253760000E-03
 Rydberg constant [1/m]                                     1.09737315685270E+07
 Avogadro constant [1/mol]                                  6.02214179000000E+23
 Boltzmann constant [J/K]                                   1.38065040000000E-23
 Atomic mass unit [kg]                                      1.66053878200000E-27
 Bohr radius [m]                                            5.29177208590000E-11

 *** Conversion factors ***

 [u] -> [a.u.]                                              1.82288848426455E+03
 [Angstrom] -> [Bohr] = [a.u.]                              1.88972613288564E+00
 [a.u.] = [Bohr] -> [Angstrom]                              5.29177208590000E-01
 [a.u.] -> [s]                                              2.41888432650478E-17
 [a.u.] -> [fs]                                             2.41888432650478E-02
 [a.u.] -> [J]                                              4.35974393937059E-18
 [a.u.] -> [N]                                              8.23872205491840E-08
 [a.u.] -> [K]                                              3.15774647902944E+05
 [a.u.] -> [kJ/mol]                                         2.62549961709828E+03
 [a.u.] -> [kcal/mol]                                       6.27509468713739E+02
 [a.u.] -> [Pa]                                             2.94210107994716E+13
 [a.u.] -> [bar]                                            2.94210107994716E+08
 [a.u.] -> [atm]                                            2.90362800883016E+08
 [a.u.] -> [eV]                                             2.72113838565563E+01
 [a.u.] -> [Hz]                                             6.57968392072181E+15
 [a.u.] -> [1/cm] (wave numbers)                            2.19474631370540E+05
 [a.u./Bohr**2] -> [1/cm]                                   5.14048714338585E+03
 

 CELL_TOP| Volume [angstrom^3]:                                     10221.806009
 CELL_TOP| Vector a [angstrom    16.869     0.000     0.000   |a| =    16.869000
 CELL_TOP| Vector b [angstrom    -8.434    14.609     0.000   |b| =    16.869015
 CELL_TOP| Vector c [angstrom     0.000     0.000    41.478   |c| =    41.478000
 CELL_TOP| Angle (b,c), alpha [degree]:                                90.000000
 CELL_TOP| Angle (a,c), beta  [degree]:                                90.000000
 CELL_TOP| Angle (a,b), gamma [degree]:                               119.999970
 CELL_TOP| Numerically orthorhombic:                                          NO
 
 GENERATE|  Preliminary Number of Bonds generated:                             0
 GENERATE|  Achieved consistency in connectivity generation.

 CELL| Volume [angstrom^3]:                                         10221.806009
 CELL| Vector a [angstrom]:      16.869     0.000     0.000   |a| =    16.869000
 CELL| Vector b [angstrom]:      -8.434    14.609     0.000   |b| =    16.869015
 CELL| Vector c [angstrom]:       0.000     0.000    41.478   |c| =    41.478000
 CELL| Angle (b,c), alpha [degree]:                                    90.000000
 CELL| Angle (a,c), beta  [degree]:                                    90.000000
 CELL| Angle (a,b), gamma [degree]:                                   119.999970
 CELL| Numerically orthorhombic:                                              NO

 CELL_REF| Volume [angstrom^3]:                                     10221.806009
 CELL_REF| Vector a [angstrom    16.869     0.000     0.000   |a| =    16.869000
 CELL_REF| Vector b [angstrom    -8.434    14.609     0.000   |b| =    16.869015
 CELL_REF| Vector c [angstrom     0.000     0.000    41.478   |c| =    41.478000
 CELL_REF| Angle (b,c), alpha [degree]:                                90.000000
 CELL_REF| Angle (a,c), beta  [degree]:                                90.000000
 CELL_REF| Angle (a,b), gamma [degree]:                               119.999970
 CELL_REF| Numerically orthorhombic:                                          NO

 *******************************************************************************
 *******************************************************************************
 **                                                                           **
 **     #####                         ##              ##                      **
 **    ##   ##            ##          ##              ##                      **
 **   ##     ##                       ##            ######                    **
 **   ##     ##  ##   ##  ##   #####  ##  ##   ####   ##    #####    #####    **
 **   ##     ##  ##   ##  ##  ##      ## ##   ##      ##   ##   ##  ##   ##   **
 **   ##  ## ##  ##   ##  ##  ##      ####     ###    ##   ######   ######    **
 **    ##  ###   ##   ##  ##  ##      ## ##      ##   ##   ##       ##        **
 **     #######   #####   ##   #####  ##  ##  ####    ##    #####   ##        **
 **           ##                                                    ##        **
 **                                                                           **
 **                                                ... make the atoms dance   **
 **                                                                           **
 **            Copyright (C) by CP2K developers group (2000-2022)             **
 **                      J. Chem. Phys. 152, 194103 (2020)                    **
 **                                                                           **
 *******************************************************************************

 DFT| Spin restricted Kohn-Sham (RKS) calculation                            RKS
 DFT| Multiplicity                                                             1
 DFT| Number of spin states                                                    1
 DFT| Charge                                                                   0
 DFT| Self-interaction correction (SIC)                                       NO
 DFT| Cutoffs: density                                              1.000000E-10
 DFT|          gradient                                             1.000000E-10
 DFT|          tau                                                  1.000000E-10
 DFT|          cutoff_smoothing_range                               0.000000E+00
 DFT| XC density smoothing                                                  NONE
 DFT| XC derivatives                                                          PW

 FUNCTIONAL| PBE:
 FUNCTIONAL| J.P.Perdew, K.Burke, M.Ernzerhof, Phys. Rev. Letter, vol. 77, n 18,
 FUNCTIONAL|  pp. 3865-3868, (1996){spin unpolarized}                           

 vdW POTENTIAL|                                                   Pair Potential
 vdW POTENTIAL|          DFT-D3 (Version 3.1)
 vdW POTENTIAL|          Potential Form: S. Grimme et al, JCP 132: 154104 (2010)
 vdW POTENTIAL|          Zero Damping
 vdW POTENTIAL|          Cutoff Radius [Bohr]:                             20.00
 vdW POTENTIAL|          s6 Scaling Factor:                               1.0000
 vdW POTENTIAL|          sr6 Scaling Factor:                              1.2170
 vdW POTENTIAL|          s8 Scaling Factor:                               0.7220
 vdW POTENTIAL|          Cutoff for CN calculation:                   0.1000E-05

 QS| Method:                                                                 GPW
 QS| Density plane wave grid type                        NON-SPHERICAL FULLSPACE
 QS| Number of grid levels:                                                    4
 QS| Density cutoff [a.u.]:                                                200.0
 QS| Multi grid cutoff [a.u.]: 1) grid level                               200.0
 QS|                           2) grid level                                66.7
 QS|                           3) grid level                                22.2
 QS|                           4) grid level                                 7.4
 QS| Grid level progression factor:                                          3.0
 QS| Relative density cutoff [a.u.]:                                        20.0
 QS| Interaction thresholds: eps_pgf_orb:                                3.2E-07
 QS|                         eps_filter_matrix:                          0.0E+00
 QS|                         eps_core_charge:                            1.0E-15
 QS|                         eps_rho_gspace:                             1.0E-13
 QS|                         eps_rho_rspace:                             1.0E-13
 QS|                         eps_gvg_rspace:                             3.2E-07
 QS|                         eps_ppl:                                    1.0E-02
 QS|                         eps_ppnl:                                   3.2E-09


 ATOMIC KIND INFORMATION

  1. Atomic kind: O                                     Number of atoms:     230

     Orbital Basis Set                                        DZVP-MOLOPT-SR-GTH

       Number of orbital shell sets:                                           1
       Number of orbital shells:                                               5
       Number of primitive Cartesian functions:                                5
       Number of Cartesian basis functions:                                   14
       Number of spherical basis functions:                                   13
       Norm type:                                                              2

       Normalised Cartesian orbitals:

                        Set   Shell   Orbital            Exponent    Coefficient

                          1       1    2s               10.389228       0.396646
                                                         3.849621       0.208811
                                                         1.388401      -0.301641
                                                         0.496955      -0.274061
                                                         0.162492      -0.033677

                          1       2    3s               10.389228       0.303673
                                                         3.849621       0.240943
                                                         1.388401      -0.313066
                                                         0.496955      -0.043055
                                                         0.162492       0.213991

                          1       3    3px              10.389228      -1.530415
                                                         3.849621      -1.371928
                                                         1.388401      -0.761951
                                                         0.496955      -0.253695
                                                         0.162492      -0.035541
                          1       3    3py              10.389228      -1.530415
                                                         3.849621      -1.371928
                                                         1.388401      -0.761951
                                                         0.496955      -0.253695
                                                         0.162492      -0.035541
                          1       3    3pz              10.389228      -1.530415
                                                         3.849621      -1.371928
                                                         1.388401      -0.761951
                                                         0.496955      -0.253695
                                                         0.162492      -0.035541

                          1       4    4px              10.389228      -0.565392
                                                         3.849621      -0.038231
                                                         1.388401      -0.382373
                                                         0.496955       0.179070
                                                         0.162492       0.122714
                          1       4    4py              10.389228      -0.565392
                                                         3.849621      -0.038231
                                                         1.388401      -0.382373
                                                         0.496955       0.179070
                                                         0.162492       0.122714
                          1       4    4pz              10.389228      -0.565392
                                                         3.849621      -0.038231
                                                         1.388401      -0.382373
                                                         0.496955       0.179070
                                                         0.162492       0.122714

                          1       5    4dx2             10.389228       1.867377
                                                         3.849621       0.670994
                                                         1.388401       1.353441
                                                         0.496955       0.273538
                                                         0.162492       0.006620
                          1       5    4dxy             10.389228       3.234392
                                                         3.849621       1.162195
                                                         1.388401       2.344229
                                                         0.496955       0.473781
                                                         0.162492       0.011466
                          1       5    4dxz             10.389228       3.234392
                                                         3.849621       1.162195
                                                         1.388401       2.344229
                                                         0.496955       0.473781
                                                         0.162492       0.011466
                          1       5    4dy2             10.389228       1.867377
                                                         3.849621       0.670994
                                                         1.388401       1.353441
                                                         0.496955       0.273538
                                                         0.162492       0.006620
                          1       5    4dyz             10.389228       3.234392
                                                         3.849621       1.162195
                                                         1.388401       2.344229
                                                         0.496955       0.473781
                                                         0.162492       0.011466
                          1       5    4dz2             10.389228       1.867377
                                                         3.849621       0.670994
                                                         1.388401       1.353441
                                                         0.496955       0.273538
                                                         0.162492       0.006620

       Atomic covalent radius [Angstrom]:                                  0.730

       Atomic van der Waals radius [Angstrom]:                             1.520

     GTH Potential information for                                    GTH-PBE-q6

       Description:                       Goedecker-Teter-Hutter pseudopotential
                                           Goedecker et al., PRB 54, 1703 (1996)
                                          Hartwigsen et al., PRB 58, 3641 (1998)
                                                      Krack, TCA 114, 145 (2005)

       Gaussian exponent of the core charge distribution:               8.360253
       Electronic configuration (s p d ...):                               2   4

       Parameters of the local part of the GTH pseudopotential:

                          rloc        C1          C2          C3          C4
                        0.244554  -16.667215    2.487311

       Parameters of the non-local part of the GTH pseudopotential:

                   l      r(l)      h(i,j,l)

                   0    0.220956   18.337458
                   1    0.211332

  2. Atomic kind: H                                     Number of atoms:     460

     Orbital Basis Set                                        DZVP-MOLOPT-SR-GTH

       Number of orbital shell sets:                                           1
       Number of orbital shells:                                               3
       Number of primitive Cartesian functions:                                5
       Number of Cartesian basis functions:                                    5
       Number of spherical basis functions:                                    5
       Norm type:                                                              2

       Normalised Cartesian orbitals:

                        Set   Shell   Orbital            Exponent    Coefficient

                          1       1    2s               10.068468      -0.133023
                                                         2.680223      -0.177618
                                                         0.791502      -0.258419
                                                         0.239116      -0.107525
                                                         0.082193      -0.014019

                          1       2    3s               10.068468       0.344673
                                                         2.680223       1.819821
                                                         0.791502      -0.999069
                                                         0.239116       0.017430
                                                         0.082193       0.082660

                          1       3    3px              10.068468       0.155326
                                                         2.680223       0.367157
                                                         0.791502       0.311480
                                                         0.239116       0.080105
                                                         0.082193       0.033440
                          1       3    3py              10.068468       0.155326
                                                         2.680223       0.367157
                                                         0.791502       0.311480
                                                         0.239116       0.080105
                                                         0.082193       0.033440
                          1       3    3pz              10.068468       0.155326
                                                         2.680223       0.367157
                                                         0.791502       0.311480
                                                         0.239116       0.080105
                                                         0.082193       0.033440

       Atomic covalent radius [Angstrom]:                                  0.320

       Atomic van der Waals radius [Angstrom]:                             1.090

     GTH Potential information for                                    GTH-PBE-q1

       Description:                       Goedecker-Teter-Hutter pseudopotential
                                           Goedecker et al., PRB 54, 1703 (1996)
                                          Hartwigsen et al., PRB 58, 3641 (1998)
                                                      Krack, TCA 114, 145 (2005)

       Gaussian exponent of the core charge distribution:              12.500000
       Electronic configuration (s p d ...):                                   1

       Parameters of the local part of the GTH pseudopotential:

                          rloc        C1          C2          C3          C4
                        0.200000   -4.178900    0.724463

  3. Atomic kind: Pt                                    Number of atoms:     216

     Orbital Basis Set                      DZVP-A5-Q10-323-MOL-T1-DERIVED_SET-1

       Number of orbital shell sets:                                           1
       Number of orbital shells:                                               6
       Number of primitive Cartesian functions:                                5
       Number of Cartesian basis functions:                                   23
       Number of spherical basis functions:                                   20
       Norm type:                                                              2

       Normalised Cartesian orbitals:

                        Set   Shell   Orbital            Exponent    Coefficient

                          1       1    2s                2.521825       0.177473
                                                         1.453920      -0.063399
                                                         0.614053      -0.407089
                                                         0.232656       0.262254
                                                         0.074788       0.047371

                          1       2    3s                2.521825      -0.049056
                                                         1.453920       0.044904
                                                         0.614053      -0.009756
                                                         0.232656      -0.144709
                                                         0.074788       0.144085

                          1       3    3px               2.521825      -0.317572
                                                         1.453920       0.534826
                                                         0.614053      -0.489458
                                                         0.232656       0.245631
                                                         0.074788       0.018221
                          1       3    3py               2.521825      -0.317572
                                                         1.453920       0.534826
                                                         0.614053      -0.489458
                                                         0.232656       0.245631
                                                         0.074788       0.018221
                          1       3    3pz               2.521825      -0.317572
                                                         1.453920       0.534826
                                                         0.614053      -0.489458
                                                         0.232656       0.245631
                                                         0.074788       0.018221

                          1       4    4dx2              2.521825       3.008522
                                                         1.453920      -1.224251
                                                         0.614053       0.225691
                                                         0.232656       0.125144
                                                         0.074788      -0.015348
                          1       4    4dxy              2.521825       5.210912
                                                         1.453920      -2.120465
                                                         0.614053       0.390909
                                                         0.232656       0.216756
                                                         0.074788      -0.026584
                          1       4    4dxz              2.521825       5.210912
                                                         1.453920      -2.120465
                                                         0.614053       0.390909
                                                         0.232656       0.216756
                                                         0.074788      -0.026584
                          1       4    4dy2              2.521825       3.008522
                                                         1.453920      -1.224251
                                                         0.614053       0.225691
                                                         0.232656       0.125144
                                                         0.074788      -0.015348
                          1       4    4dyz              2.521825       5.210912
                                                         1.453920      -2.120465
                                                         0.614053       0.390909
                                                         0.232656       0.216756
                                                         0.074788      -0.026584
                          1       4    4dz2              2.521825       3.008522
                                                         1.453920      -1.224251
                                                         0.614053       0.225691
                                                         0.232656       0.125144
                                                         0.074788      -0.015348

                          1       5    5dx2              2.521825       0.698026
                                                         1.453920      -1.511486
                                                         0.614053      -0.335394
                                                         0.232656      -0.025564
                                                         0.074788      -0.002699
                          1       5    5dxy              2.521825       1.209017
                                                         1.453920      -2.617970
                                                         0.614053      -0.580920
                                                         0.232656      -0.044277
                                                         0.074788      -0.004674
                          1       5    5dxz              2.521825       1.209017
                                                         1.453920      -2.617970
                                                         0.614053      -0.580920
                                                         0.232656      -0.044277
                                                         0.074788      -0.004674
                          1       5    5dy2              2.521825       0.698026
                                                         1.453920      -1.511486
                                                         0.614053      -0.335394
                                                         0.232656      -0.025564
                                                         0.074788      -0.002699
                          1       5    5dyz              2.521825       1.209017
                                                         1.453920      -2.617970
                                                         0.614053      -0.580920
                                                         0.232656      -0.044277
                                                         0.074788      -0.004674
                          1       5    5dz2              2.521825       0.698026
                                                         1.453920      -1.511486
                                                         0.614053      -0.335394
                                                         0.232656      -0.025564
                                                         0.074788      -0.002699

                          1       6    6dx2              2.521825       0.831079
                                                         1.453920      -0.709226
                                                         0.614053      -0.137351
                                                         0.232656       0.068642
                                                         0.074788       0.011745
                          1       6    6dxy              2.521825       1.439472
                                                         1.453920      -1.228415
                                                         0.614053      -0.237899
                                                         0.232656       0.118891
                                                         0.074788       0.020343
                          1       6    6dxz              2.521825       1.439472
                                                         1.453920      -1.228415
                                                         0.614053      -0.237899
                                                         0.232656       0.118891
                                                         0.074788       0.020343
                          1       6    6dy2              2.521825       0.831079
                                                         1.453920      -0.709226
                                                         0.614053      -0.137351
                                                         0.232656       0.068642
                                                         0.074788       0.011745
                          1       6    6dyz              2.521825       1.439472
                                                         1.453920      -1.228415
                                                         0.614053      -0.237899
                                                         0.232656       0.118891
                                                         0.074788       0.020343
                          1       6    6dz2              2.521825       0.831079
                                                         1.453920      -0.709226
                                                         0.614053      -0.137351
                                                         0.232656       0.068642
                                                         0.074788       0.011745

       Atomic covalent radius [Angstrom]:                                  1.300

       Atomic van der Waals radius [Angstrom]:                             1.750

     GTH Potential information for                                   GTH-PBE-q10

       Description:                       Goedecker-Teter-Hutter pseudopotential
                                           Goedecker et al., PRB 54, 1703 (1996)
                                          Hartwigsen et al., PRB 58, 3641 (1998)
                                                      Krack, TCA 114, 145 (2005)

       Gaussian exponent of the core charge distribution:               1.317676
       Electronic configuration (s p d ...):                           1   0   9

       Parameters of the local part of the GTH pseudopotential:

                          rloc        C1          C2          C3          C4
                        0.616000   11.313635

       Parameters of the non-local part of the GTH pseudopotential:

                   l      r(l)      h(i,j,l)

                   0    0.550904    4.733491   -1.784594
                                   -1.784594    2.303901
                   1    0.674138    2.534798   -1.778066
                                   -1.778066    2.103836
                   2    0.457392   -7.264011    2.558665
                                    2.558665   -2.901253


 MOLECULE KIND INFORMATION


 All atoms are their own molecule, skipping detailed information


 TOTAL NUMBERS AND MAXIMUM NUMBERS

  Total number of            - Atomic kinds:                                   3
                             - Atoms:                                        906
                             - Shell sets:                                   906
                             - Shells:                                      3826
                             - Primitive Cartesian functions:               4530
                             - Cartesian basis functions:                  10488
                             - Spherical basis functions:                   9610

  Maximum angular momentum of- Orbital basis functions:                        2
                             - Local part of the GTH pseudopotential:          2
                             - Non-local part of the GTH pseudopotential:      4


 MODULE QUICKSTEP:  ATOMIC COORDINATES IN angstrom

 Atom  Kind  Element       X           Y           Z          Z(eff)       Mass
    1   1 O    8       1.350000    2.140000   15.380001       6.0000     15.9994
    2   2 H    1       0.630000    1.620000   15.090000       1.0000      1.0079
    3   2 H    1       2.180000    1.570000   15.260000       1.0000      1.0079
    4   1 O    8      10.820000   -1.740000   12.910000       6.0000     15.9994
    5   2 H    1      10.470000   -1.820000   13.830000       1.0000      1.0079
    6   2 H    1      10.190001   -1.820000   12.200001       1.0000      1.0079
    7   1 O    8       0.450000   -5.030000   20.370003       6.0000     15.9994
    8   2 H    1      -0.470000   -5.210000   20.690001       1.0000      1.0079
    9   2 H    1       1.000000   -5.790000   20.700001       1.0000      1.0079
   10   1 O    8      -0.630000   -7.650001   27.090000       6.0000     15.9994
   11   2 H    1      -1.510000   -7.690001   27.550001       1.0000      1.0079
   12   2 H    1      -0.030000   -7.460001   27.810001       1.0000      1.0079
   13   1 O    8       5.890000   -1.930000   32.580002       6.0000     15.9994
   14   2 H    1       5.930000   -1.650000   33.550003       1.0000      1.0079
   15   2 H    1       5.140000   -1.560000   31.990002       1.0000      1.0079
   16   1 O    8       3.410000   16.680000   15.070001       6.0000     15.9994
   17   2 H    1       3.230000   15.890001   15.750000       1.0000      1.0079
   18   2 H    1       2.830000   16.440001   14.320001       1.0000      1.0079
   19   1 O    8       0.700000   13.560000   20.340002       6.0000     15.9994
   20   2 H    1       0.830000   12.640000   20.590000       1.0000      1.0079
   21   2 H    1      -0.170000   13.680000   19.820002       1.0000      1.0079
   22   1 O    8      -1.320000   17.320002    9.040001       6.0000     15.9994
   23   2 H    1      -1.530000   17.360001    9.950001       1.0000      1.0079
   24   2 H    1       7.870001    3.320000    8.890000       1.0000      1.0079
   25   1 O    8      -4.710000   -3.470000   21.990002       6.0000     15.9994
   26   2 H    1      -4.580000   -2.800000   22.800003       1.0000      1.0079
   27   2 H    1      -4.460000   -2.890000   21.200001       1.0000      1.0079
   28   1 O    8       4.830000   17.880001   32.600002       6.0000     15.9994
   29   2 H    1       5.070000   17.950001   33.630001       1.0000      1.0079
   30   2 H    1       5.690000   18.070000   32.070004       1.0000      1.0079
   31   1 O    8      -3.870000    2.260000   20.210001       6.0000     15.9994
   32   2 H    1      -4.370000    3.100000   20.350000       1.0000      1.0079
   33   2 H    1      -4.560000    1.720000   19.760000       1.0000      1.0079
   34   1 O    8      -5.800000   -3.460000   27.400002       6.0000     15.9994
   35   2 H    1      -5.810000   -4.390000   27.090000       1.0000      1.0079
   36   2 H    1      -5.060000   -3.030000   26.870001       1.0000      1.0079
   37   1 O    8       1.150000  -14.940001   22.950001       6.0000     15.9994
   38   2 H    1       1.020000  -15.200001   22.000000       1.0000      1.0079
   39   2 H    1       0.270000  -15.160000   23.440001       1.0000      1.0079
   40   1 O    8      20.700001   23.380001    8.680000       6.0000     15.9994
   41   2 H    1      21.600000   23.710001    9.070001       1.0000      1.0079
   42   2 H    1      20.930002   23.310001    7.700000       1.0000      1.0079
   43   1 O    8      11.540001   -3.710000   32.090000       6.0000     15.9994
   44   2 H    1      11.570001   -3.400000   31.120003       1.0000      1.0079
   45   2 H    1      12.500000   -3.920000   32.090000       1.0000      1.0079
   46   1 O    8      -8.030001   -5.180000   30.820004       6.0000     15.9994
   47   2 H    1      -8.410000   -5.800000   31.550003       1.0000      1.0079
   48   2 H    1      -8.110001   -4.250000   31.140001       1.0000      1.0079
   49   1 O    8     -14.190001   17.690001   10.950001       6.0000     15.9994
   50   2 H    1     -14.380001   18.550001   11.530000       1.0000      1.0079
   51   2 H    1     -14.510001   17.000000   11.570001       1.0000      1.0079
   52   1 O    8       2.250000    0.920000   20.870001       6.0000     15.9994
   53   2 H    1       1.470000    1.560000   20.680000       1.0000      1.0079
   54   2 H    1       2.460000    0.420000   20.060001       1.0000      1.0079
   55   1 O    8     -13.130001   -7.560000   25.860003       6.0000     15.9994
   56   2 H    1     -12.430000   -8.130000   25.440002       1.0000      1.0079
   57   2 H    1     -13.780001   -7.420001   25.130001       1.0000      1.0079
   58   1 O    8       9.810000    0.820000   33.690002       6.0000     15.9994
   59   2 H    1      10.280000    0.010000   33.279999       1.0000      1.0079
   60   2 H    1       8.820001    0.830000   33.590004       1.0000      1.0079
   61   1 O    8     -26.960001   21.150000   28.250000       6.0000     15.9994
   62   2 H    1     -26.230001   21.030003   28.840000       1.0000      1.0079
   63   2 H    1      -9.900001   20.480001   27.580002       1.0000      1.0079
   64   1 O    8      -0.510000   -6.760001   16.370001       6.0000     15.9994
   65   2 H    1      -0.510000   -7.820001   16.260000       1.0000      1.0079
   66   2 H    1      15.400001   -6.560000   16.639999       1.0000      1.0079
   67   1 O    8      17.950001   -0.860000    8.970000       6.0000     15.9994
   68   2 H    1       9.750000   13.660001    7.980001       1.0000      1.0079
   69   2 H    1      16.940001   -0.880000    9.000000       1.0000      1.0079
   70   1 O    8     -10.200001   12.750001   32.060001       6.0000     15.9994
   71   2 H    1     -10.580001   13.500000   32.590000       1.0000      1.0079
   72   2 H    1     -10.500001   12.830001   31.110001       1.0000      1.0079
   73   1 O    8      -1.320000    2.400000   24.490002       6.0000     15.9994
   74   2 H    1      -0.470000    2.840000   24.390001       1.0000      1.0079
   75   2 H    1      -1.360000    1.570000   24.080002       1.0000      1.0079
   76   1 O    8      -4.160000    0.970000   29.900002       6.0000     15.9994
   77   2 H    1      -3.590000    1.700000   29.590000       1.0000      1.0079
   78   2 H    1      -5.060000    1.290000   29.970001       1.0000      1.0079
   79   1 O    8     -11.220001   -9.380000   24.700001       6.0000     15.9994
   80   2 H    1     -10.520000   -9.690001   25.330002       1.0000      1.0079
   81   2 H    1     -11.900001  -10.080000   24.790001       1.0000      1.0079
   82   1 O    8       9.300001    4.540000    9.120001       6.0000     15.9994
   83   2 H    1       9.870001    4.270000    9.920000       1.0000      1.0079
   84   2 H    1       9.770000    5.180000    8.560000       1.0000      1.0079
   85   1 O    8      -0.720000   15.380001   12.910000       6.0000     15.9994
   86   2 H    1      -0.920000   15.450001   13.890000       1.0000      1.0079
   87   2 H    1      -1.410000   16.030001   12.480001       1.0000      1.0079
   88   1 O    8       6.530001   -0.660000   19.170000       6.0000     15.9994
   89   2 H    1     -10.470000    0.290000   19.390001       1.0000      1.0079
   90   2 H    1       5.770000   -1.200000   19.380001       1.0000      1.0079
   91   1 O    8       4.170000    4.290000   32.600002       6.0000     15.9994
   92   2 H    1       3.220000    4.330000   32.350002       1.0000      1.0079
   93   2 H    1       4.260000    3.560000   33.270000       1.0000      1.0079
   94   1 O    8       8.500000   12.080001   18.330000       6.0000     15.9994
   95   2 H    1       8.940001   11.370001   17.770000       1.0000      1.0079
   96   2 H    1       8.430000   12.860001   17.760002       1.0000      1.0079
   97   1 O    8      -4.890000   -4.600000    9.360001       6.0000     15.9994
   98   2 H    1      -4.750000   -3.850000   10.000000       1.0000      1.0079
   99   2 H    1      -5.000000   -4.180000    8.500000       1.0000      1.0079
  100   1 O    8       0.010000   -5.310000   32.320000       6.0000     15.9994
  101   2 H    1      -0.880000   -5.520000   32.760002       1.0000      1.0079
  102   2 H    1       0.560000   -6.140000   32.150002       1.0000      1.0079
  103   1 O    8       7.880001    3.560000   18.640001       6.0000     15.9994
  104   2 H    1       7.650001    4.410000   19.110001       1.0000      1.0079
  105   2 H    1      -9.520000    3.560000   17.800001       1.0000      1.0079
  106   1 O    8      -1.370000    8.420001   12.850000       6.0000     15.9994
  107   2 H    1      -1.610000    9.100000   12.230001       1.0000      1.0079
  108   2 H    1      -0.900000    7.710000   12.290001       1.0000      1.0079
  109   1 O    8      14.500000   10.430001    9.280001       6.0000     15.9994
  110   2 H    1      14.000001   11.190001    8.800000       1.0000      1.0079
  111   2 H    1      14.660001   10.740000   10.210000       1.0000      1.0079
  112   1 O    8     -16.920000    6.470000   15.470000       6.0000     15.9994
  113   2 H    1     -15.940001    6.440001   15.350000       1.0000      1.0079
  114   2 H    1     -17.090000    7.500000   15.560001       1.0000      1.0079
  115   1 O    8      -3.680000   13.960000    9.750000       6.0000     15.9994
  116   2 H    1      -4.280000   14.630001    9.360001       1.0000      1.0079
  117   2 H    1      -2.800000   14.350000    9.550000       1.0000      1.0079
  118   1 O    8      -9.880000    1.780000   20.280001       6.0000     15.9994
  119   2 H    1      -9.140000    1.880000   20.940001       1.0000      1.0079
  120   2 H    1      -9.740001    2.540000   19.680000       1.0000      1.0079
  121   1 O    8       0.720000    2.800000   20.100000       6.0000     15.9994
  122   2 H    1      -0.130000    2.390000   19.810001       1.0000      1.0079
  123   2 H    1       1.080000    2.950000   19.230001       1.0000      1.0079
  124   1 O    8     -18.070000   13.530001   16.470001       6.0000     15.9994
  125   2 H    1     -26.820002   28.240002   17.460001       1.0000      1.0079
  126   2 H    1     -18.660000   12.770000   16.230000       1.0000      1.0079
  127   1 O    8      11.130000   -8.170000   15.080000       6.0000     15.9994
  128   2 H    1      11.660000   -8.840000   15.610001       1.0000      1.0079
  129   2 H    1       2.920000    6.210001   14.140000       1.0000      1.0079
  130   1 O    8       0.770000   -1.450000   32.440002       6.0000     15.9994
  131   2 H    1      -0.170000   -1.790000   32.280003       1.0000      1.0079
  132   2 H    1       1.180000   -2.250000   32.860001       1.0000      1.0079
  133   1 O    8     -17.330000   19.850002   15.750000       6.0000     15.9994
  134   2 H    1     -16.390001   19.570002   15.920001       1.0000      1.0079
  135   2 H    1     -17.560001   19.930002   14.790001       1.0000      1.0079
  136   1 O    8      -6.560000    3.170000   18.240002       6.0000     15.9994
  137   2 H    1      -6.260000    3.110000   17.290001       1.0000      1.0079
  138   2 H    1      -7.550001    3.250000   18.190001       1.0000      1.0079
  139   1 O    8      -8.190001   -3.750000   25.720001       6.0000     15.9994
  140   2 H    1      -8.570001   -4.260000   26.490002       1.0000      1.0079
  141   2 H    1      -7.300000   -3.450000   26.070002       1.0000      1.0079
  142   1 O    8       6.250000    9.350000    9.200000       6.0000     15.9994
  143   2 H    1       5.280000    9.450001    9.320001       1.0000      1.0079
  144   2 H    1       6.330000    8.390000    9.490001       1.0000      1.0079
  145   1 O    8     -10.340000   25.650002   12.450000       6.0000     15.9994
  146   2 H    1       7.050000   26.580002   12.250000       1.0000      1.0079
  147   2 H    1     -11.070000   25.890003   13.100000       1.0000      1.0079
  148   1 O    8     -12.870001    4.960000   21.190002       6.0000     15.9994
  149   2 H    1     -12.620001    3.980000   21.410000       1.0000      1.0079
  150   2 H    1     -13.530001    5.220000   21.880001       1.0000      1.0079
  151   1 O    8       2.580000    8.270000   29.900002       6.0000     15.9994
  152   2 H    1       1.860000    8.860001   30.360003       1.0000      1.0079
  153   2 H    1       2.570000    7.480001   30.510002       1.0000      1.0079
  154   1 O    8      13.340001    0.290000   32.310001       6.0000     15.9994
  155   2 H    1      13.540001    1.150000   32.750000       1.0000      1.0079
  156   2 H    1      13.320000    0.550000   31.390001       1.0000      1.0079
  157   1 O    8      -8.540000   -4.950000   18.980001       6.0000     15.9994
  158   2 H    1      -8.270000   -4.670000   18.080002       1.0000      1.0079
  159   2 H    1      -7.900000   -4.480000   19.540001       1.0000      1.0079
  160   1 O    8       4.270000   -2.590000    8.000000       6.0000     15.9994
  161   2 H    1       4.310000   -1.760000    8.600000       1.0000      1.0079
  162   2 H    1       3.400000   -3.020000    8.270000       1.0000      1.0079
  163   1 O    8      17.580002   -4.760000   24.190002       6.0000     15.9994
  164   2 H    1      18.000000   -5.650000   23.970001       1.0000      1.0079
  165   2 H    1      17.690001   -4.230000   23.400002       1.0000      1.0079
  166   1 O    8      -2.190000   17.230000   11.760000       6.0000     15.9994
  167   2 H    1      -3.140000   17.180000   12.070000       1.0000      1.0079
  168   2 H    1      -1.890000   18.050001   12.260000       1.0000      1.0079
  169   1 O    8     -22.970001   11.020000   26.130001       6.0000     15.9994
  170   2 H    1      -6.690001   10.700001   25.350000       1.0000      1.0079
  171   2 H    1      -6.580000   10.850000   27.010002       1.0000      1.0079
  172   1 O    8       3.180000    5.490000   12.520000       6.0000     15.9994
  173   2 H    1       2.240000    5.730000   12.150001       1.0000      1.0079
  174   2 H    1       3.320000    4.550000   12.430000       1.0000      1.0079
  175   1 O    8      -0.660000   13.410001   24.700001       6.0000     15.9994
  176   2 H    1      -1.600000   13.370000   24.370001       1.0000      1.0079
  177   2 H    1      -0.500000   12.520000   25.050001       1.0000      1.0079
  178   1 O    8       1.420000    4.010000   32.320000       6.0000     15.9994
  179   2 H    1       1.510000    3.190000   32.800003       1.0000      1.0079
  180   2 H    1       0.560000    4.410000   32.540001       1.0000      1.0079
  181   1 O    8      18.490002    6.080000   25.370003       6.0000     15.9994
  182   2 H    1      18.710001    6.520000   24.490002       1.0000      1.0079
  183   2 H    1      18.620001    6.730001   26.070002       1.0000      1.0079
  184   1 O    8       2.750000    8.360001   33.450005       6.0000     15.9994
  185   2 H    1       3.560000    7.930000   32.980000       1.0000      1.0079
  186   2 H    1       2.670000    9.250001   33.070000       1.0000      1.0079
  187   1 O    8      -7.080000   27.560001   15.320001       6.0000     15.9994
  188   2 H    1      -8.070001   27.660000   15.550001       1.0000      1.0079
  189   2 H    1      -6.590000   28.210001   15.850000       1.0000      1.0079
  190   1 O    8      -3.130000   10.410000   28.170002       6.0000     15.9994
  191   2 H    1      -2.200000   10.080000   28.480000       1.0000      1.0079
  192   2 H    1      -3.220000   10.130000   27.190001       1.0000      1.0079
  193   1 O    8      -3.920000    7.120000   29.630001       6.0000     15.9994
  194   2 H    1      -3.090000    7.140000   29.160002       1.0000      1.0079
  195   2 H    1      -4.290000    6.290000   29.230001       1.0000      1.0079
  196   1 O    8      -9.100000   -0.140000   27.750000       6.0000     15.9994
  197   2 H    1      -8.910000   -0.550000   26.830002       1.0000      1.0079
  198   2 H    1      -9.920000   -0.690000   27.990000       1.0000      1.0079
  199   1 O    8      -5.350000    8.280001   14.910001       6.0000     15.9994
  200   2 H    1      -5.090000    9.210001   14.730001       1.0000      1.0079
  201   2 H    1      -6.320000    8.240001   14.880000       1.0000      1.0079
  202   1 O    8      -2.270000   17.850000   16.320002       6.0000     15.9994
  203   2 H    1      -3.150000   18.250000   16.500000       1.0000      1.0079
  204   2 H    1      -1.710000   18.590000   16.000000       1.0000      1.0079
  205   1 O    8      16.960001   -4.770000    7.950000       6.0000     15.9994
  206   2 H    1       9.030001    8.900001    8.340000       1.0000      1.0079
  207   2 H    1      16.000000   -4.830000    8.210000       1.0000      1.0079
  208   1 O    8      -9.830000  -17.220001   26.610001       6.0000     15.9994
  209   2 H    1      -9.950001  -18.170000   26.370001       1.0000      1.0079
  210   2 H    1      -9.880000  -17.280001   27.590000       1.0000      1.0079
  211   1 O    8       4.600000   -5.140000   25.790003       6.0000     15.9994
  212   2 H    1       3.720000   -4.670000   25.950001       1.0000      1.0079
  213   2 H    1       4.340000   -6.140000   25.920000       1.0000      1.0079
  214   1 O    8      -1.000000   -0.230000   17.030001       6.0000     15.9994
  215   2 H    1      -0.860000    0.200000   16.130001       1.0000      1.0079
  216   2 H    1      -1.120000    0.470000   17.710001       1.0000      1.0079
  217   1 O    8     -10.360001    3.400000   31.360001       6.0000     15.9994
  218   2 H    1      -9.690001    4.020000   31.910002       1.0000      1.0079
  219   2 H    1     -11.260000    3.690000   31.600000       1.0000      1.0079
  220   1 O    8       7.900000    9.020000   13.980001       6.0000     15.9994
  221   2 H    1       6.900001    9.040001   13.890000       1.0000      1.0079
  222   2 H    1       8.080000    8.610001   14.930000       1.0000      1.0079
  223   1 O    8     -11.390000    8.750001   17.380001       6.0000     15.9994
  224   2 H    1       5.130000    8.270000   18.170000       1.0000      1.0079
  225   2 H    1     -11.200000    9.650001   17.820000       1.0000      1.0079
  226   1 O    8      -1.670000   26.260002   10.570001       6.0000     15.9994
  227   2 H    1      -2.330000   26.170002   11.350001       1.0000      1.0079
  228   2 H    1      15.310000   25.380001   10.250001       1.0000      1.0079
  229   1 O    8      -2.430000    5.310000   22.060001       6.0000     15.9994
  230   2 H    1      -2.510000    5.010000   23.030003       1.0000      1.0079
  231   2 H    1      -1.540000    5.060000   21.750002       1.0000      1.0079
  232   1 O    8      -2.740000    8.190001   33.530003       6.0000     15.9994
  233   2 H    1      -3.130000    7.240000   33.250000       1.0000      1.0079
  234   2 H    1      -3.270000    8.960000   33.100002       1.0000      1.0079
  235   1 O    8     -13.000001    8.620001   22.880001       6.0000     15.9994
  236   2 H    1     -12.520000    8.710001   23.790001       1.0000      1.0079
  237   2 H    1     -13.110001    9.630001   22.650002       1.0000      1.0079
  238   1 O    8       8.210000   -7.080000   32.590000       6.0000     15.9994
  239   2 H    1      -1.080000    7.810000   33.030003       1.0000      1.0079
  240   2 H    1       8.860001   -7.150001   33.360001       1.0000      1.0079
  241   1 O    8      -6.720000   -6.980000   19.530001       6.0000     15.9994
  242   2 H    1      -7.320001   -6.230001   19.180000       1.0000      1.0079
  243   2 H    1      -6.930000   -6.980000   20.559999       1.0000      1.0079
  244   1 O    8       2.020000   -3.310000    9.640000       6.0000     15.9994
  245   2 H    1       1.570000   -3.940000    9.010000       1.0000      1.0079
  246   2 H    1       1.530000   -2.480000    9.610001       1.0000      1.0079
  247   1 O    8       8.120001   -1.560000   11.760000       6.0000     15.9994
  248   2 H    1       7.980001   -0.770000   12.300000       1.0000      1.0079
  249   2 H    1       7.960001   -1.170000   10.830001       1.0000      1.0079
  250   1 O    8       8.170000   15.930000   31.190002       6.0000     15.9994
  251   2 H    1       9.100000   16.090000   31.020002       1.0000      1.0079
  252   2 H    1       7.860000   15.810001   30.260002       1.0000      1.0079
  253   1 O    8      -5.180000   15.790001    8.560000       6.0000     15.9994
  254   2 H    1      -6.070001   15.370001    8.820001       1.0000      1.0079
  255   2 H    1      -5.260000   16.030001    7.610001       1.0000      1.0079
  256   1 O    8       5.290000   -4.550000   23.190001       6.0000     15.9994
  257   2 H    1       5.020000   -5.420001   22.690001       1.0000      1.0079
  258   2 H    1       4.870000   -4.750000   24.050003       1.0000      1.0079
  259   1 O    8     -12.980001    4.570000   16.710001       6.0000     15.9994
  260   2 H    1     -13.810000    4.190001   17.070002       1.0000      1.0079
  261   2 H    1     -12.810000    5.310000   17.400002       1.0000      1.0079
  262   1 O    8       1.520000    7.470000   22.340002       6.0000     15.9994
  263   2 H    1       0.910000    8.100000   22.740002       1.0000      1.0079
  264   2 H    1       2.440000    7.860000   22.570002       1.0000      1.0079
  265   1 O    8      -7.490000   -8.340000   11.610001       6.0000     15.9994
  266   2 H    1      -7.940001   -9.160001   11.280001       1.0000      1.0079
  267   2 H    1       0.990000    6.810000   10.770000       1.0000      1.0079
  268   1 O    8      -9.760000   10.260000   29.790001       6.0000     15.9994
  269   2 H    1      -9.490001   10.020000   30.700001       1.0000      1.0079
  270   2 H    1     -10.330000   11.080000   29.820002       1.0000      1.0079
  271   1 O    8       4.910000   12.760000   20.050001       6.0000     15.9994
  272   2 H    1       4.270000   13.440001   19.760000       1.0000      1.0079
  273   2 H    1       5.250000   12.170000   19.310001       1.0000      1.0079
  274   1 O    8      -8.830000    5.470000   24.780003       6.0000     15.9994
  275   2 H    1      -8.690001    5.780000   25.730001       1.0000      1.0079
  276   2 H    1      -9.150001    4.580000   24.860001       1.0000      1.0079
  277   1 O    8      -6.000000    0.720000   19.310001       6.0000     15.9994
  278   2 H    1     -23.150002    1.730000   19.250000       1.0000      1.0079
  279   2 H    1      -6.720000    0.140000   19.710001       1.0000      1.0079
  280   1 O    8      19.070000  -11.470001   32.610001       6.0000     15.9994
  281   2 H    1      20.080002  -11.430000   32.530003       1.0000      1.0079
  282   2 H    1      18.890001  -12.360001   33.139999       1.0000      1.0079
  283   1 O    8       5.030000   -6.730001   21.639999       6.0000     15.9994
  284   2 H    1      -3.190000    8.160001   20.730001       1.0000      1.0079
  285   2 H    1       5.480001   -7.500000   22.000000       1.0000      1.0079
  286   1 O    8     -20.820000   19.880001   24.170000       6.0000     15.9994
  287   2 H    1      -4.750000   19.220001   24.070000       1.0000      1.0079
  288   2 H    1     -20.040001   19.330002   24.000000       1.0000      1.0079
  289   1 O    8      -6.520000    4.200000   22.620001       6.0000     15.9994
  290   2 H    1      -5.880000    3.860000   23.290001       1.0000      1.0079
  291   2 H    1      -5.980001    4.460000   21.900002       1.0000      1.0079
  292   1 O    8      -2.510000   -3.380000   18.250000       6.0000     15.9994
  293   2 H    1      -1.510000   -3.200000   18.340000       1.0000      1.0079
  294   2 H    1      -2.810000   -2.850000   17.450001       1.0000      1.0079
  295   1 O    8       2.520000    2.200000   29.980001       6.0000     15.9994
  296   2 H    1       2.260000    3.110000   29.760000       1.0000      1.0079
  297   2 H    1       2.950000    1.940000   29.160002       1.0000      1.0079
  298   1 O    8      -2.810000    8.830000   19.220001       6.0000     15.9994
  299   2 H    1      -1.910000    9.110001   19.020000       1.0000      1.0079
  300   2 H    1      -3.580000    9.290000   18.770000       1.0000      1.0079
  301   1 O    8       0.940000   -0.020000   26.700001       6.0000     15.9994
  302   2 H    1       1.690000   -0.570000   26.440001       1.0000      1.0079
  303   2 H    1       1.460000    0.800000   26.620003       1.0000      1.0079
  304   1 O    8       7.270000   -0.160000    9.120001       6.0000     15.9994
  305   2 H    1       7.540000    0.740000    8.840000       1.0000      1.0079
  306   2 H    1       7.740001   -0.760000    8.500000       1.0000      1.0079
  307   1 O    8      -9.900001    6.810000    9.510000       6.0000     15.9994
  308   2 H    1     -10.640000    6.220000    9.090000       1.0000      1.0079
  309   2 H    1      -9.040001    6.710000    8.990001       1.0000      1.0079
  310   1 O    8      -4.740000   16.110001   27.390001       6.0000     15.9994
  311   2 H    1      -3.720000   16.280001   27.250002       1.0000      1.0079
  312   2 H    1      -4.820000   15.180001   27.030001       1.0000      1.0079
  313   1 O    8       2.940000   13.360001   33.380001       6.0000     15.9994
  314   2 H    1       2.820000   12.460001   32.930000       1.0000      1.0079
  315   2 H    1       3.830000   13.700001   33.060001       1.0000      1.0079
  316   1 O    8      10.540000    1.440000    9.040001       6.0000     15.9994
  317   2 H    1       9.690001    1.930000    8.880001       1.0000      1.0079
  318   2 H    1      10.410000    0.640000    8.430000       1.0000      1.0079
  319   1 O    8      -1.370000    6.620001    9.070001       6.0000     15.9994
  320   2 H    1      -1.510000    6.790000    8.100000       1.0000      1.0079
  321   2 H    1      -2.170000    5.970000    9.210001       1.0000      1.0079
  322   1 O    8      -2.960000    6.210001   18.700001       6.0000     15.9994
  323   2 H    1      -2.970000    7.200000   18.900002       1.0000      1.0079
  324   2 H    1      -2.080000    6.240000   18.340000       1.0000      1.0079
  325   1 O    8       7.030000    3.830000   28.910000       6.0000     15.9994
  326   2 H    1       6.510000    4.640000   28.650002       1.0000      1.0079
  327   2 H    1       6.870000    3.640000   29.920002       1.0000      1.0079
  328   1 O    8      -5.950000   13.240002   16.090000       6.0000     15.9994
  329   2 H    1      -6.610000   12.650002   15.690001       1.0000      1.0079
  330   2 H    1      -6.060000   13.500000   17.070002       1.0000      1.0079
  331   1 O    8     -12.090001    7.330000   32.160000       6.0000     15.9994
  332   2 H    1     -12.130001    6.440001   32.640003       1.0000      1.0079
  333   2 H    1     -11.500001    7.820001   32.760002       1.0000      1.0079
  334   1 O    8      -3.730000    6.100000   32.200005       6.0000     15.9994
  335   2 H    1      -4.070000    5.210000   32.310001       1.0000      1.0079
  336   2 H    1      -3.780000    6.420000   31.270000       1.0000      1.0079
  337   1 O    8       3.020000   14.520000   16.760002       6.0000     15.9994
  338   2 H    1      12.290001   -0.710000   16.840002       1.0000      1.0079
  339   2 H    1     -14.050001   14.930000   17.610001       1.0000      1.0079
  340   1 O    8      11.930000   23.780001   15.600000       6.0000     15.9994
  341   2 H    1      12.610001   23.540001   16.300001       1.0000      1.0079
  342   2 H    1      11.500001   22.870003   15.460001       1.0000      1.0079
  343   1 O    8      11.930000   10.140000   18.090002       6.0000     15.9994
  344   2 H    1      11.080000    9.850000   17.720001       1.0000      1.0079
  345   2 H    1      12.300000   10.780001   17.470001       1.0000      1.0079
  346   1 O    8       7.800000   -5.270000   28.120001       6.0000     15.9994
  347   2 H    1       7.410001   -6.220000   27.990000       1.0000      1.0079
  348   2 H    1       8.220000   -5.300000   29.010000       1.0000      1.0079
  349   1 O    8      15.250001    4.930000   13.530001       6.0000     15.9994
  350   2 H    1      15.810001    5.400000   14.210001       1.0000      1.0079
  351   2 H    1      14.430000    5.450000   13.570002       1.0000      1.0079
  352   1 O    8       3.480000    2.880000   12.260000       6.0000     15.9994
  353   2 H    1       2.630000    2.520000   11.860001       1.0000      1.0079
  354   2 H    1       3.500000    2.390000   13.110001       1.0000      1.0079
  355   1 O    8      -3.220000   -1.020000   13.850001       6.0000     15.9994
  356   2 H    1      -2.530000   -0.330000   13.730000       1.0000      1.0079
  357   2 H    1      -4.030000   -0.800000   13.390001       1.0000      1.0079
  358   1 O    8       9.200000   16.940001   11.190001       6.0000     15.9994
  359   2 H    1       8.970000   16.800001   12.110001       1.0000      1.0079
  360   2 H    1       8.520000   17.600000   10.900001       1.0000      1.0079
  361   1 O    8      -6.740000   15.340000   33.540001       6.0000     15.9994
  362   2 H    1      -5.860000   15.570001   33.060001       1.0000      1.0079
  363   2 H    1      -7.210000   14.560001   33.209999       1.0000      1.0079
  364   1 O    8       2.200000    5.030000   28.920002       6.0000     15.9994
  365   2 H    1       2.080000    4.500000   28.070002       1.0000      1.0079
  366   2 H    1       3.070000    5.460000   28.790001       1.0000      1.0079
  367   1 O    8      -4.930000   15.210000   14.490002       6.0000     15.9994
  368   2 H    1      -5.240001   14.520000   15.170001       1.0000      1.0079
  369   2 H    1      -3.940000   15.360001   14.700001       1.0000      1.0079
  370   1 O    8     -15.140000   -3.840000   33.320004       6.0000     15.9994
  371   2 H    1     -14.280001   -4.080000   32.990002       1.0000      1.0079
  372   2 H    1     -15.740002   -4.550000   32.980000       1.0000      1.0079
  373   1 O    8      -2.250000   16.590000   27.220001       6.0000     15.9994
  374   2 H    1      -1.950000   17.260000   27.900002       1.0000      1.0079
  375   2 H    1      -1.570000   15.890001   27.390001       1.0000      1.0079
  376   1 O    8      -4.520000    6.210001   16.440001       6.0000     15.9994
  377   2 H    1      -4.130000    6.180000   17.370001       1.0000      1.0079
  378   2 H    1      -4.460000    7.190001   16.200001       1.0000      1.0079
  379   1 O    8       1.220000   -7.840000   29.180002       6.0000     15.9994
  380   2 H    1       1.350000   -8.830000   29.220001       1.0000      1.0079
  381   2 H    1       1.450000   -7.430000   30.020000       1.0000      1.0079
  382   1 O    8      -7.080000   -3.660000   20.930002       6.0000     15.9994
  383   2 H    1      -6.250000   -3.680000   21.500000       1.0000      1.0079
  384   2 H    1      -7.750000   -3.980000   21.570000       1.0000      1.0079
  385   1 O    8       0.750000   12.470001    8.400001       6.0000     15.9994
  386   2 H    1       0.560000   11.530000    8.450001       1.0000      1.0079
  387   2 H    1       1.660000   12.600001    8.660001       1.0000      1.0079
  388   1 O    8      -5.030000   11.030001   13.810000       6.0000     15.9994
  389   2 H    1      -4.780000   11.890000   13.380001       1.0000      1.0079
  390   2 H    1      -5.940001   11.250000   14.090000       1.0000      1.0079
  391   1 O    8       7.090001   16.880001    8.400001       6.0000     15.9994
  392   2 H    1       7.200000   16.020000    8.880001       1.0000      1.0079
  393   2 H    1       6.090000   16.940001    8.460000       1.0000      1.0079
  394   1 O    8       3.600000   14.920001   27.150002       6.0000     15.9994
  395   2 H    1      12.770000    0.800000   26.750002       1.0000      1.0079
  396   2 H    1       3.690000   15.000001   28.120001       1.0000      1.0079
  397   1 O    8      -2.480000    1.770000   26.740000       6.0000     15.9994
  398   2 H    1      -1.770000    2.080000   26.070002       1.0000      1.0079
  399   2 H    1      -2.690000    2.460000   27.450001       1.0000      1.0079
  400   1 O    8      -7.190001    3.900000   28.580000       6.0000     15.9994
  401   2 H    1      -8.160001    3.980000   28.590002       1.0000      1.0079
  402   2 H    1      -7.060000    3.170000   29.260002       1.0000      1.0079
  403   1 O    8      18.460001   20.040001   12.950001       6.0000     15.9994
  404   2 H    1      18.790001   19.950001   13.830000       1.0000      1.0079
  405   2 H    1      18.400000   20.930002   12.700001       1.0000      1.0079
  406   1 O    8       7.430000    0.900000   32.510002       6.0000     15.9994
  407   2 H    1       7.060000    1.730000   32.090000       1.0000      1.0079
  408   2 H    1       6.670001    0.340000   32.600002       1.0000      1.0079
  409   1 O    8      16.960001    4.500000    8.160001       6.0000     15.9994
  410   2 H    1      16.540001    5.220000    8.640000       1.0000      1.0079
  411   2 H    1      16.330002    3.730000    8.310000       1.0000      1.0079
  412   1 O    8     -14.490002   -6.890000   21.040001       6.0000     15.9994
  413   2 H    1     -13.450001   -6.900001   21.170002       1.0000      1.0079
  414   2 H    1     -14.750000   -7.700000   20.500002       1.0000      1.0079
  415   1 O    8     -10.220001   13.990001    9.030001       6.0000     15.9994
  416   2 H    1     -10.220001   13.000001    9.330000       1.0000      1.0079
  417   2 H    1     -10.240001   14.000001    8.050001       1.0000      1.0079
  418   1 O    8      16.460001   29.610003   13.760000       6.0000     15.9994
  419   2 H    1      15.960001   30.190001   13.200001       1.0000      1.0079
  420   2 H    1      16.730001   28.900002   13.190001       1.0000      1.0079
  421   1 O    8      13.080001    5.190001    8.860001       6.0000     15.9994
  422   2 H    1      12.500000    5.600000    9.570000       1.0000      1.0079
  423   2 H    1      12.750001    5.490000    8.000000       1.0000      1.0079
  424   1 O    8       1.150000   14.060000   29.940002       6.0000     15.9994
  425   2 H    1       0.570000   13.580000   30.630001       1.0000      1.0079
  426   2 H    1       9.030001   -0.510000   29.080002       1.0000      1.0079
  427   1 O    8       6.880000   18.300001   31.020002       6.0000     15.9994
  428   2 H    1       7.470000   19.130001   30.780001       1.0000      1.0079
  429   2 H    1       7.400000   17.530001   31.210001       1.0000      1.0079
  430   1 O    8      -6.170001   13.690001   18.580000       6.0000     15.9994
  431   2 H    1      -5.410000   13.150001   18.910000       1.0000      1.0079
  432   2 H    1      -6.970000   13.260001   18.820002       1.0000      1.0079
  433   1 O    8      -1.360000   -8.820001   19.800001       6.0000     15.9994
  434   2 H    1      -2.250000   -8.600000   19.490002       1.0000      1.0079
  435   2 H    1      -1.550000   -8.820001   20.810001       1.0000      1.0079
  436   1 O    8     -12.530001   11.310000   11.820001       6.0000     15.9994
  437   2 H    1     -13.340001   11.640000   12.320002       1.0000      1.0079
  438   2 H    1      -4.000000   -4.160000   12.290001       1.0000      1.0079
  439   1 O    8      -2.030000   -5.690000   21.119999       6.0000     15.9994
  440   2 H    1      -2.880000   -5.780000   20.750000       1.0000      1.0079
  441   2 H    1      -1.820000   -6.560000   21.639999       1.0000      1.0079
  442   1 O    8      -3.720000   -0.360000   10.990001       6.0000     15.9994
  443   2 H    1      -3.000000   -0.870000   11.400002       1.0000      1.0079
  444   2 H    1      -3.510000    0.630000   11.010000       1.0000      1.0079
  445   1 O    8     -18.020000    4.250000   11.100000       6.0000     15.9994
  446   2 H    1     -18.150002    4.410000   12.040001       1.0000      1.0079
  447   2 H    1     -18.710001    3.570000   11.020000       1.0000      1.0079
  448   1 O    8       1.700000    7.850000    8.950001       6.0000     15.9994
  449   2 H    1       2.200000    8.660001    9.190001       1.0000      1.0079
  450   2 H    1      18.940001    7.540000    8.150001       1.0000      1.0079
  451   1 O    8       0.170000   12.070000   32.050003       6.0000     15.9994
  452   2 H    1      -0.770000   12.090001   32.029999       1.0000      1.0079
  453   2 H    1       0.370000   12.370001   32.950001       1.0000      1.0079
  454   1 O    8       4.450000   -0.550000   30.860003       6.0000     15.9994
  455   2 H    1       4.840000   -0.730000   29.940002       1.0000      1.0079
  456   2 H    1       3.470000   -0.770000   30.660002       1.0000      1.0079
  457   1 O    8      -7.400000    9.640000   17.690001       6.0000     15.9994
  458   2 H    1      -7.660000    9.620001   18.640001       1.0000      1.0079
  459   2 H    1      -7.800000    8.880001   17.260000       1.0000      1.0079
  460   1 O    8      12.760000   -1.970000   26.040001       6.0000     15.9994
  461   2 H    1      13.730000   -2.160000   26.040001       1.0000      1.0079
  462   2 H    1      -4.280000   -1.110000   26.510000       1.0000      1.0079
  463   1 O    8      -9.910001  -13.190001   19.220001       6.0000     15.9994
  464   2 H    1      -9.720000  -13.890000   19.910000       1.0000      1.0079
  465   2 H    1     -10.700001  -12.740001   19.550001       1.0000      1.0079
  466   1 O    8       8.350000   -4.830000    8.150001       6.0000     15.9994
  467   2 H    1       7.480001   -4.620000    8.470000       1.0000      1.0079
  468   2 H    1       8.770000   -5.590000    8.550000       1.0000      1.0079
  469   1 O    8     -17.470001    4.810000   26.360001       6.0000     15.9994
  470   2 H    1     -16.630001    5.360000   25.980000       1.0000      1.0079
  471   2 H    1     -17.010000    4.020000   26.730001       1.0000      1.0079
  472   1 O    8       1.920000   -0.900000   30.270002       6.0000     15.9994
  473   2 H    1       1.400000   -1.190000   31.120003       1.0000      1.0079
  474   2 H    1       1.850000   -1.630000   29.710003       1.0000      1.0079
  475   1 O    8      14.230001    2.380000   14.030001       6.0000     15.9994
  476   2 H    1      13.350000    2.390000   14.470000       1.0000      1.0079
  477   2 H    1      14.650001    3.290000   14.140000       1.0000      1.0079
  478   1 O    8     -16.590000   16.720001   22.420002       6.0000     15.9994
  479   2 H    1     -15.770000   17.340000   22.510002       1.0000      1.0079
  480   2 H    1     -16.310001   15.830001   22.720001       1.0000      1.0079
  481   1 O    8       9.350000   11.610001   22.060001       6.0000     15.9994
  482   2 H    1       9.400001   12.560000   21.770000       1.0000      1.0079
  483   2 H    1       9.270000   11.110001   21.270000       1.0000      1.0079
  484   1 O    8      -4.230000   12.310000   19.870001       6.0000     15.9994
  485   2 H    1      -4.420000   12.350000   20.830002       1.0000      1.0079
  486   2 H    1      -4.250000   11.350001   19.660000       1.0000      1.0079
  487   1 O    8       8.080000   24.270000   23.240002       6.0000     15.9994
  488   2 H    1       8.340000   24.790001   24.120003       1.0000      1.0079
  489   2 H    1       7.170000   24.550001   23.210001       1.0000      1.0079
  490   1 O    8       8.960000   12.690001   12.090001       6.0000     15.9994
  491   2 H    1       8.280001   12.560000   11.390000       1.0000      1.0079
  492   2 H    1       9.740001   12.930001   11.600000       1.0000      1.0079
  493   1 O    8      -1.050000    0.270000   28.820002       6.0000     15.9994
  494   2 H    1      -9.950001   15.260000   28.000002       1.0000      1.0079
  495   2 H    1      -0.220000   -0.110000   28.530003       1.0000      1.0079
  496   1 O    8      -0.810000   -0.610000   24.520000       6.0000     15.9994
  497   2 H    1      -8.760000   14.140000   25.380001       1.0000      1.0079
  498   2 H    1      -9.670001   13.110001   24.540003       1.0000      1.0079
  499   1 O    8       6.630001   11.380000   23.020000       6.0000     15.9994
  500   2 H    1       6.100000   10.920000   22.310001       1.0000      1.0079
  501   2 H    1       7.490000   11.540001   22.560001       1.0000      1.0079
  502   1 O    8      13.800001    2.390000   11.360001       6.0000     15.9994
  503   2 H    1      12.890000    2.780000   11.140001       1.0000      1.0079
  504   2 H    1      13.890000    2.460000   12.340001       1.0000      1.0079
  505   1 O    8      12.830001    2.510000    8.200001       6.0000     15.9994
[...]
    899      3      Pt         -0.00452429    -0.00604024     0.00176268
    900      3      Pt         -0.00033664    -0.00598848    -0.00469093
    901      3      Pt          0.00227028    -0.00683990     0.00173680
    902      3      Pt         -0.00967528    -0.00045662    -0.02408410
    903      3      Pt         -0.00140379    -0.00219347    -0.00273835
    904      3      Pt          0.00046691    -0.00398337     0.00978597
    905      3      Pt         -0.01111867     0.00560646    -0.00275212
    906      3      Pt          0.00828410     0.02195054    -0.01301479
 SUM OF ATOMIC FORCES           0.03172159     0.00914877     0.02549888     0.04171513

 STRESS| Analytical stress tensor [GPa]
 STRESS|                        x                   y                   z
 STRESS|      x       -2.36477069624E+00  -3.01696652019E-01  -2.18732707687E-02
 STRESS|      y       -3.01696652019E-01  -2.51445947906E+00   1.52880700313E-01
 STRESS|      z       -2.18732707687E-02   1.52880700313E-01  -3.16325484669E-01
 STRESS| 1/3 Trace                                            -1.73185188666E+00
 STRESS| Determinant                                          -1.79362571056E+00

 STRESS| Eigenvectors and eigenvalues of the analytical stress tensor [GPa]
 STRESS|                        1                   2                   3
 STRESS| Eigenvalues  -2.75518429625E+00  -2.13552869512E+00  -3.04842668604E-01
 STRESS|      x           0.609317604808      0.792645053048     -0.021115784352
 STRESS|      y           0.791695453317     -0.606672843591      0.071877465502
 STRESS|      z          -0.044162944518      0.060513475584      0.997189928551

 -------------------------------------------------------------------------------
 -                                                                             -
 -                                DBCSR STATISTICS                             -
 -                                                                             -
 -------------------------------------------------------------------------------
 COUNTER                                    TOTAL       BLAS       SMM       ACC
 flops     5 x     5 x   288          81531360000       0.0%    100.0%      0.0%
 flops     5 x     5 x   292          82663740000       0.0%    100.0%      0.0%
 flops    13 x     5 x   288          91877760000       0.0%    100.0%      0.0%
 flops     5 x    13 x   288          91900224000       0.0%    100.0%      0.0%
 flops    13 x    20 x   288          92753856000       0.0%    100.0%      0.0%
 flops    13 x     5 x   292          93153840000       0.0%    100.0%      0.0%
 flops     5 x    13 x   292          93176616000       0.0%    100.0%      0.0%
 flops    20 x    13 x   288          93248064000       0.0%    100.0%      0.0%
 flops    13 x    20 x   292          94042104000       0.0%    100.0%      0.0%
 flops    20 x    13 x   292          94543176000       0.0%    100.0%      0.0%
 flops    13 x    13 x   288          97889126400       0.0%    100.0%      0.0%
 flops    13 x    13 x   292          99248697600       0.0%    100.0%      0.0%
 flops    20 x     5 x   288         101109600000       0.0%    100.0%      0.0%
 flops     5 x    20 x   288         101256480000       0.0%    100.0%      0.0%
 flops    20 x     5 x   292         102513900000       0.0%    100.0%      0.0%
 flops     5 x    20 x   292         102662820000       0.0%    100.0%      0.0%
 flops    20 x    20 x   288         404974080000       0.0%    100.0%      0.0%
 flops    20 x    20 x   292         410598720000       0.0%    100.0%      0.0%
 flops     5 x     5 x   320         543542400000       0.0%    100.0%      0.0%
 flops    13 x     5 x   320         612518400000       0.0%    100.0%      0.0%
 flops     5 x    13 x   320         612668160000       0.0%    100.0%      0.0%
 flops    13 x    20 x   320         618359040000       0.0%    100.0%      0.0%
 flops    20 x    13 x   320         621653760000       0.0%    100.0%      0.0%
 flops    13 x    13 x   320         652594176000       0.0%    100.0%      0.0%
 flops    20 x     5 x   320         674064000000       0.0%    100.0%      0.0%
 flops     5 x    20 x   320         675043200000       0.0%    100.0%      0.0%
 flops    20 x    20 x   320        2699827200000       0.0%    100.0%      0.0%
 flops inhomo. stacks                           0       0.0%      0.0%      0.0%
 flops total                        10.039414E+12       0.0%    100.0%      0.0%
 flops max/rank                    163.301625E+09       0.0%    100.0%      0.0%
 matmuls inhomo. stacks                         0       0.0%      0.0%      0.0%
 matmuls total                          144712800       0.0%    100.0%      0.0%
 number of processed stacks                384000       0.0%    100.0%      0.0%
 average stack size                                     0.0     376.9       0.0
 marketing flops                    28.544917E+12
 -------------------------------------------------------------------------------
 # multiplications                             75
 max memory usage/rank               1.872228E+09
 # max total images/rank                        1
 # max 3D layers                                1
 # MPI messages exchanged                   67200
 MPI messages size (bytes):
  total size                       201.809920E+09
  min size                           2.762496E+06
  max size                           3.077120E+06
  average size                       3.003124E+06
 MPI breakdown and total messages size (bytes):
             size <=      128                   0                        0
       128 < size <=     8192                   0                        0
      8192 < size <=    32768                   0                        0
     32768 < size <=   131072                   0                        0
    131072 < size <=  4194304               67200             201810000000
   4194304 < size <= 16777216                   0                        0
  16777216 < size                               0                        0
 -------------------------------------------------------------------------------
 -                                                                             -
 -                      DBCSR MESSAGE PASSING PERFORMANCE                      -
 -                                                                             -
 -------------------------------------------------------------------------------
 ROUTINE             CALLS      AVE VOLUME [Bytes]
 MP_Bcast               28                     12.
 MP_Allreduce          599                     10.
 MP_Alltoall          2100                1982007.
 MP_ISend             2400                1329597.
 MP_IRecv             2400                1310413.
 -------------------------------------------------------------------------------

 -------------------------------------------------------------------------------
 -                                                                             -
 -                                DBM STATISTICS                               -
 -                                                                             -
 -------------------------------------------------------------------------------
    M  x    N  x    K                                          COUNT     PERCENT
 -------------------------------------------------------------------------------

 -------------------------------------------------------------------------------
 -                                                                             -
 -                                GRID STATISTICS                              -
 -                                                                             -
 -------------------------------------------------------------------------------
 LP    KERNEL             BACKEND                              COUNT     PERCENT
 3     collocate general  REF                               52000050      18.84%
 3     integrate general  REF                               51364700      18.61%
 2     collocate general  REF                               49164825      17.82%
 2     integrate general  REF                               48509294      17.58%
 4     collocate general  REF                               36703350      13.30%
 4     integrate general  REF                               36213972      13.12%
 6     integrate general  REF                                 693334       0.25%
 5     integrate general  REF                                 655531       0.24%
 7     integrate general  REF                                 489378       0.18%
 0     collocate general  REF                                 115968       0.04%
 0     integrate general  REF                                  57984       0.02%
 -------------------------------------------------------------------------------

 MEMORY| Estimated peak process memory [MiB]                                2107

 -------------------------------------------------------------------------------
 ----                             MULTIGRID INFO                            ----
 -------------------------------------------------------------------------------
 count for grid        1:         731598          cutoff [a.u.]          200.00
 count for grid        2:         807368          cutoff [a.u.]           66.67
 count for grid        3:         741526          cutoff [a.u.]           22.22
 count for grid        4:         830947          cutoff [a.u.]            7.41
 total gridlevel count  :        3111439

 -------------------------------------------------------------------------------
 -                                                                             -
 -                         MESSAGE PASSING PERFORMANCE                         -
 -                                                                             -
 -------------------------------------------------------------------------------

 ROUTINE             CALLS      AVE VOLUME [Bytes]
 MP_Group                4
 MP_Bcast              250                2361462.
 MP_Allreduce         1299                   1926.
 MP_Sync                78
 MP_Alltoall          1666               14608018.
 MP_SendRecv           252                  13974.
 MP_ISendRecv        18900                 113680.
 MP_Wait             42308
 MP_ISend            21888                 340249.
 MP_IRecv            21888                 340249.
 MP_Recv               308                2460160.
 MP_Write_All            3                1540656.
 -------------------------------------------------------------------------------


 -------------------------------------------------------------------------------
 -                                                                             -
 -                           R E F E R E N C E S                               -
 -                                                                             -
 -------------------------------------------------------------------------------
 
 CP2K version 2022.1, the CP2K developers group (2022).
 CP2K is freely available from https://www.cp2k.org/ .

 Kuehne,Thomas D.; Iannuzzi,Marcella; Del Ben,Mauro;
 Rybkin,Vladimir V.; Seewald,Patrick; Stein,Frederick; Laino,Teodoro;
 Khaliullin,Rustam Z.; Schuett,Ole; Schiffmann,Florian; Golze,Dorothea;
 Wilhelm,Jan; Chulkov,Sergey; Bani-Hashemian,Mohammad Hossein;
 Weber,Valery; Borstnik,Urban; Taillefumier,Mathieu;
 Jakobovits,Alice Shoshana; Lazzaro,Alfio; Pabst,Hans; Mueller,Tiziano;
 Schade,Robert; Guidon,Manuel; Andermatt,Samuel; Holmberg,Nico;
 Schenter,Gregory K.; Hehn,Anna; Bussy,Augustin; Belleflamme,Fabian;
 Tabacchi,Gloria; Gloess,Andreas; Lass,Michael; Bethune,Iain;
 Mundy,Christopher J.; Plessl,Christian; Watkins,Matt;
 VandeVondele,Joost; Krack,Matthias; Hutter,Juerg. 
 The Journal of Chemical Physics, 152 (19), (2020). 
 CP2K: An electronic structure and molecular dynamics software package -
 Quickstep: Efficient and accurate electronic structure calculations.
 https://doi.org/10.1063/5.0007045

 Goerigk, Lars; Hansen, Andreas; Bauer, Christoph; Ehrlich, Stephan;
 Najibi, Asim; Grimme, Stefan. , 19 (48), (2017). 
 A look at the density functional theory zoo with the advanced GMTKN55 database
 for general main group thermochemistry, kinetics and noncovalent interactions.
 https://doi.org/10.1039/C7CP04913G

 Schuett, Ole; Messmer, Peter; Hutter, Juerg; VandeVondele, Joost. 
 Electronic Structure Calculations on Graphics Processing Units, John
 Wiley & Sons, Ltd, 173-190 (2016). 
 GPU-Accelerated Sparse Matrix-Matrix Multiplication for
 Linear Scaling Density Functional Theory.
 https://doi.org/10.1002/9781118670712.ch8

 Heinecke, A; Henry, G; Hutchinson, M; Pabst, H. 
 Proceedings of Intl. Supercomputing Conference, 981-991 (2016). 
 LIBXSMM: Accelerating Small Matrix Multiplications
 by Runtime Code Generation.
 https://doi.org/10.1109/SC.2016.83

 Borstnik, U; VandeVondele, J; Weber, V; Hutter, J. 
 PARALLEL COMPUTING, 40 (5-6), 47-58 (2014). 
 Sparse matrix multiplication: The distributed block-compressed sparse
 row library.
 https://doi.org/10.1016/j.parco.2014.03.012

 Hutter, J; Iannuzzi, M; Schiffmann, F; VandeVondele, J. 
 WIREs Comput Mol Sci., 4 (1), 15-25 (2014). 
 CP2K: atomistic simulations of condensed matter systems.
 https://doi.org/10.1002/wcms.1159

 Marek, A; Blum, V; Johanni, R; Havu, V; Lang, B; Auckenthaler, T;
 Heinecke, A; Bungartz, H; Lederer, H. 
 Journal of Physics: Condensed Matter, 26 (21), (2014). 
 The ELPA library: scalable parallel eigenvalue solutions for
 electronic structure
 theory and computational science.
 https://doi.org/10.1088/0953-8984/26/21/213201

 Grimme, S; Ehrlich, S; Goerigk, L. 
 JOURNAL OF COMPUTATIONAL CHEMISTRY, 32, 1456 (2011). 
 Effect of the damping function in dispersion corrected density functional theory.
 https://doi.org/10.1002/jcc.21759

 Grimme, S; Antony, J; Ehrlich, S; Krieg, H. 
 JOURNAL OF CHEMICAL PHYSICS, 132 (15), 154104 (2010). 
 A consistent and accurate ab initio parametrization of density
 functional dispersion correction (DFT-D) for the 94 elements H-Pu.
 https://doi.org/10.1063/1.3382344

 VandeVondele, J; Hutter, J. 
 JOURNAL OF CHEMICAL PHYSICS, 127 (11), 114105 (2007). 
 Gaussian basis sets for accurate calculations on molecular systems in
 gas and condensed phases.
 https://doi.org/10.1063/1.2770708

 Krack, M. 
 THEORETICAL CHEMISTRY ACCOUNTS, 114 (1-3), 145-152 (2005). 
 Pseudopotentials for H to Kr optimized for gradient-corrected
 exchange-correlation functionals.
 https://doi.org/10.1007/s00214-005-0655-y

 VandeVondele, J; Krack, M; Mohamed, F; Parrinello, M; Chassaing, T;
 Hutter, J. COMPUTER PHYSICS COMMUNICATIONS, 167 (2), 103-128 (2005). 
 QUICKSTEP: Fast and accurate density functional calculations using a
 mixed Gaussian and plane waves approach.
 https://doi.org/10.1016/j.cpc.2004.12.014

 Frigo, M; Johnson, SG. 
 PROCEEDINGS OF THE IEEE, 93 (2), 216-231 (2005). 
 The design and implementation of FFTW3.
 https://doi.org/10.1109/JPROC.2004.840301

 Hartwigsen, C; Goedecker, S; Hutter, J. 
 PHYSICAL REVIEW B, 58 (7), 3641-3662 (1998). 
 Relativistic separable dual-space Gaussian pseudopotentials from H to Rn.
 https://doi.org/10.1103/PhysRevB.58.3641

 Lippert, G; Hutter, J; Parrinello, M. 
 MOLECULAR PHYSICS, 92 (3), 477-487 (1997). 
 A hybrid Gaussian and plane wave density functional scheme.
 https://doi.org/10.1080/002689797170220

 Perdew, JP; Burke, K; Ernzerhof, M. 
 PHYSICAL REVIEW LETTERS, 77 (18), 3865-3868 (1996). 
 Generalized gradient approximation made simple.
 https://doi.org/10.1103/PhysRevLett.77.3865

 Goedecker, S; Teter, M; Hutter, J. 
 PHYSICAL REVIEW B, 54 (3), 1703-1710 (1996). 
 Separable dual-space Gaussian pseudopotentials.
 https://doi.org/10.1103/PhysRevB.54.1703


 -------------------------------------------------------------------------------
 -                                                                             -
 -                                T I M I N G                                  -
 -                                                                             -
 -------------------------------------------------------------------------------
 SUBROUTINE                       CALLS  ASD         SELF TIME        TOTAL TIME
                                MAXIMUM       AVERAGE  MAXIMUM  AVERAGE  MAXIMUM
 CP2K                                 1  1.0    0.024    0.035  887.883  887.884
 qs_forces                            1  2.0    0.002    0.003  887.437  887.439
 qs_energies                          1  3.0    0.000    0.000  875.011  875.026
 scf_env_do_scf                       1  4.0    0.000    0.000  866.727  866.972
 scf_env_do_scf_inner_loop           74  5.0    0.004    0.015  866.727  866.972
 qs_scf_new_mos                      74  6.0    0.007    0.022  352.429  352.959
 eigensolver                         74  7.0    0.007    0.011  327.386  327.782
 rebuild_ks_matrix                   75  7.0    0.000    0.000  274.948  274.986
 qs_ks_build_kohn_sham_matrix        75  8.0    0.012    0.013  274.947  274.986
 qs_ks_update_qs_env                 74  6.0    0.001    0.001  266.970  267.008
 qs_rho_update_rho_low               75  6.0    0.001    0.001  234.355  234.386
 calculate_rho_elec                  75  7.0    0.175    0.208  234.354  234.386
 sum_up_and_integrate                75  9.0    0.318    0.386  230.746  230.804
 integrate_v_rspace                  75 10.0    0.003    0.003  230.429  230.506
 grid_collocate_task_list            75  8.0  206.025  211.500  206.025  211.500
 grid_integrate_task_list            75 11.0  201.083  206.381  201.083  206.381
 cp_fm_diag_elpa                     74  8.0    0.001    0.001  191.979  192.460
 cp_fm_diag_elpa_base                74  9.0  189.017  189.681  191.668  191.738
 cp_fm_triangular_multiply          222  8.0  132.669  134.369  132.669  134.369
 pw_transfer                       1500 10.9    0.107    0.138   41.534   42.443
 fft_wrap_pw1pw2                   1350 12.0    0.013    0.017   41.061   41.960
 rs_pw_transfer                     604 10.5    0.007    0.008   36.524   41.548
 fft_wrap_pw1pw2_200                900 13.3    3.705    4.021   39.485   40.249
 qs_vxc_create                       75  9.0    0.002    0.003   38.843   39.064
 xc_vxc_pw_create                    75 10.0    0.691    0.733   38.841   39.062
 fft3d_ps                          1350 14.0   14.933   16.645   30.210   31.430
 density_rs2pw                       75  8.0    0.005    0.006   25.961   30.885
 xc_pw_derive                       450 12.0    0.008    0.009   24.765   26.039
 xc_rho_set_and_dset_create          75 11.0    0.365    0.392   20.898   22.290
 potential_pw2rs                     75 11.0    0.028    0.033   21.790   21.854
 mp_waitany                       21888 12.4   15.749   21.034   15.749   21.034
 rs_pw_transfer_RS2PW_200            77 10.0    4.846    5.196   14.430   19.341
 cp_dbcsr_plus_fm_fm_t_native        75  8.0    0.004    0.009   18.137   18.827
 calculate_dm_sparse                 74  7.0    0.023    0.028   18.171   18.776
 -------------------------------------------------------------------------------

 The number of warnings for this run is : 1
 
 -------------------------------------------------------------------------------
  **** **** ******  **  PROGRAM ENDED AT                 2023-11-26 17:23:35.893
 ***** ** ***  *** **   PROGRAM RAN ON                                     cu054
 **    ****   ******    PROGRAM RAN BY                                     jxzhu
 ***** **    ** ** **   PROGRAM PROCESS ID                                 41935
  **** **  *******  **  PROGRAM STOPPED IN /public/home/jxzhu/tmp_calc/af2075565
                                           805657d94fa4669dad6f4b174b0a4fb/calc/
                                           000500.000/pbc
