 DBCSR| CPU Multiplication driver                                           XSMM
 DBCSR| Multrec recursion limit                                              512
 DBCSR| Multiplication stack size                                           1000
 DBCSR| Maximum elements for images                                    UNLIMITED
 DBCSR| Multiplicative factor virtual images                                   1
 DBCSR| Use multiplication densification                                       T
 DBCSR| Multiplication size stacks                                             3
 DBCSR| Use memory pool for CPU allocation                                     F
 DBCSR| Number of 3D layers                                               SINGLE
 DBCSR| Use MPI memory allocation                                              F
 DBCSR| Use RMA algorithm                                                      F
 DBCSR| Use Communication thread                                               T
 DBCSR| Communication thread load                                             87
 DBCSR| MPI: My node id                                                        0
 DBCSR| MPI: Number of nodes                                                  32
 DBCSR| OMP: Current number of threads                                         1
 DBCSR| OMP: Max number of threads                                             1
 DBCSR| Split modifier for TAS multiplication algorithm                  1.0E+00


  **** **** ******  **  PROGRAM STARTED AT               2023-12-03 06:05:46.826
 ***** ** ***  *** **   PROGRAM STARTED ON                                 cu042
 **    ****   ******    PROGRAM STARTED BY                                 jxzhu
 ***** **    ** ** **   PROGRAM PROCESS ID                                 46301
  **** **  *******  **  PROGRAM STARTED IN /public/home/jxzhu/tmp_calc/04c0855f9
                                           8753fac23fde4df51ba20f3741a9e9a/calc/
                                           task.001.000013

 CP2K| version string:                                       CP2K version 2022.1
 CP2K| source code revision number:                                  git:2caeb6f
 CP2K| cp2kflags: omp libint fftw3 libxc elpa parallel mpi3 scalapack cosma xsmm
 CP2K|             plumed2 spglib mkl sirius libvori libbqb
 CP2K| is freely available from                            https://www.cp2k.org/
 CP2K| Program compiled at                           Mon Jul 3 17:37:06 CST 2023
 CP2K| Program compiled on                                                 mu003
 CP2K| Program compiled for                                                local
 CP2K| Data directory path                             /public/home/jxzhu/basis/
 CP2K| Input file name                                                 input.inp
 
 GLOBAL| Force Environment number                                              1
 GLOBAL| Basis set file name                                        BASIS_MOLOPT
 GLOBAL| Potential file name                                      GTH_POTENTIALS
 GLOBAL| MM Potential file name                                     MM_POTENTIAL
 GLOBAL| Coordinate file name                                          coord.xyz
 GLOBAL| Method name                                                        CP2K
 GLOBAL| Project name                                                       cp2k
 GLOBAL| Run type                                                   ENERGY_FORCE
 GLOBAL| FFT library                                                       FFTW3
 GLOBAL| Diagonalization library                                            ELPA
 GLOBAL| Minimum number of eigenvectors for ELPA usage                        16
 GLOBAL| Orthonormality check for eigenvectors                          DISABLED
 GLOBAL| Matrix multiplication library                                     COSMA
 GLOBAL| All-to-all communication in single precision                          F
 GLOBAL| FFTs using library dependent lengths                                  T
 GLOBAL| Grid backend                                                       AUTO
 GLOBAL| Global print level                                               MEDIUM
 GLOBAL| MPI I/O enabled                                                       T
 GLOBAL| Total number of message passing processes                            32
 GLOBAL| Number of threads for this process                                    1
 GLOBAL| This output is from process                                           0
 GLOBAL| Stack size for threads created by OpenMP (OMP_STACKSIZE)        default
 GLOBAL| CPU model name                 Intel(R) Xeon(R) Gold 6338 CPU @ 2.00GHz
 GLOBAL| CPUID                                                              1003

 MEMORY| system memory details [Kb]
 MEMORY|                        rank 0           min           max       average
 MEMORY| MemTotal            263619172     263619172     263619172     263619172
 MEMORY| MemFree             174211212     174211212     174211212     174211212
 MEMORY| Buffers                  3320          3320          3320          3320
 MEMORY| Cached                8796860       8796860       8796860       8796860
 MEMORY| Slab                  1921108       1921108       1921108       1921108
 MEMORY| SReclaimable           245632        245632        245632        245632
 MEMORY| MemLikelyFree       183257024     183257024     183257024     183257024


 *** Fundamental physical constants (SI units) ***

 *** Literature: B. J. Mohr and B. N. Taylor,
 ***             CODATA recommended values of the fundamental physical
 ***             constants: 2006, Web Version 5.1
 ***             http://physics.nist.gov/constants

 Speed of light in vacuum [m/s]                             2.99792458000000E+08
 Magnetic constant or permeability of vacuum [N/A**2]       1.25663706143592E-06
 Electric constant or permittivity of vacuum [F/m]          8.85418781762039E-12
 Planck constant (h) [J*s]                                  6.62606896000000E-34
 Planck constant (h-bar) [J*s]                              1.05457162825177E-34
 Elementary charge [C]                                      1.60217648700000E-19
 Electron mass [kg]                                         9.10938215000000E-31
 Electron g factor [ ]                                     -2.00231930436220E+00
 Proton mass [kg]                                           1.67262163700000E-27
 Fine-structure constant                                    7.29735253760000E-03
 Rydberg constant [1/m]                                     1.09737315685270E+07
 Avogadro constant [1/mol]                                  6.02214179000000E+23
 Boltzmann constant [J/K]                                   1.38065040000000E-23
 Atomic mass unit [kg]                                      1.66053878200000E-27
 Bohr radius [m]                                            5.29177208590000E-11

 *** Conversion factors ***

 [u] -> [a.u.]                                              1.82288848426455E+03
 [Angstrom] -> [Bohr] = [a.u.]                              1.88972613288564E+00
 [a.u.] = [Bohr] -> [Angstrom]                              5.29177208590000E-01
 [a.u.] -> [s]                                              2.41888432650478E-17
 [a.u.] -> [fs]                                             2.41888432650478E-02
 [a.u.] -> [J]                                              4.35974393937059E-18
 [a.u.] -> [N]                                              8.23872205491840E-08
 [a.u.] -> [K]                                              3.15774647902944E+05
 [a.u.] -> [kJ/mol]                                         2.62549961709828E+03
 [a.u.] -> [kcal/mol]                                       6.27509468713739E+02
 [a.u.] -> [Pa]                                             2.94210107994716E+13
 [a.u.] -> [bar]                                            2.94210107994716E+08
 [a.u.] -> [atm]                                            2.90362800883016E+08
 [a.u.] -> [eV]                                             2.72113838565563E+01
 [a.u.] -> [Hz]                                             6.57968392072181E+15
 [a.u.] -> [1/cm] (wave numbers)                            2.19474631370540E+05
 [a.u./Bohr**2] -> [1/cm]                                   5.14048714338585E+03
 

 CELL_TOP| Volume [angstrom^3]:                                     12686.086737
 CELL_TOP| Vector a [angstrom    16.869     0.000     0.000   |a| =    16.869000
 CELL_TOP| Vector b [angstrom    -8.434    14.609     0.000   |b| =    16.868929
 CELL_TOP| Vector c [angstrom     0.000     0.000    51.478   |c| =    51.477900
 CELL_TOP| Angle (b,c), alpha [degree]:                                90.000000
 CELL_TOP| Angle (a,c), beta  [degree]:                                90.000000
 CELL_TOP| Angle (a,b), gamma [degree]:                               120.000140
 CELL_TOP| Numerically orthorhombic:                                          NO
 
 GENERATE|  Preliminary Number of Bonds generated:                             0
 GENERATE|  Achieved consistency in connectivity generation.

 CELL| Volume [angstrom^3]:                                         12686.086737
 CELL| Vector a [angstrom]:      16.869     0.000     0.000   |a| =    16.869000
 CELL| Vector b [angstrom]:      -8.434    14.609     0.000   |b| =    16.868929
 CELL| Vector c [angstrom]:       0.000     0.000    51.478   |c| =    51.477900
 CELL| Angle (b,c), alpha [degree]:                                    90.000000
 CELL| Angle (a,c), beta  [degree]:                                    90.000000
 CELL| Angle (a,b), gamma [degree]:                                   120.000140
 CELL| Numerically orthorhombic:                                              NO

 CELL_REF| Volume [angstrom^3]:                                     12686.086737
 CELL_REF| Vector a [angstrom    16.869     0.000     0.000   |a| =    16.869000
 CELL_REF| Vector b [angstrom    -8.434    14.609     0.000   |b| =    16.868929
 CELL_REF| Vector c [angstrom     0.000     0.000    51.478   |c| =    51.477900
 CELL_REF| Angle (b,c), alpha [degree]:                                90.000000
 CELL_REF| Angle (a,c), beta  [degree]:                                90.000000
 CELL_REF| Angle (a,b), gamma [degree]:                               120.000140
 CELL_REF| Numerically orthorhombic:                                          NO

 *******************************************************************************
 *******************************************************************************
 **                                                                           **
 **     #####                         ##              ##                      **
 **    ##   ##            ##          ##              ##                      **
 **   ##     ##                       ##            ######                    **
 **   ##     ##  ##   ##  ##   #####  ##  ##   ####   ##    #####    #####    **
 **   ##     ##  ##   ##  ##  ##      ## ##   ##      ##   ##   ##  ##   ##   **
 **   ##  ## ##  ##   ##  ##  ##      ####     ###    ##   ######   ######    **
 **    ##  ###   ##   ##  ##  ##      ## ##      ##   ##   ##       ##        **
 **     #######   #####   ##   #####  ##  ##  ####    ##    #####   ##        **
 **           ##                                                    ##        **
 **                                                                           **
 **                                                ... make the atoms dance   **
 **                                                                           **
 **            Copyright (C) by CP2K developers group (2000-2022)             **
 **                      J. Chem. Phys. 152, 194103 (2020)                    **
 **                                                                           **
 *******************************************************************************

 DFT| Spin restricted Kohn-Sham (RKS) calculation                            RKS
 DFT| Multiplicity                                                             1
 DFT| Number of spin states                                                    1
 DFT| Charge                                                                   0
 DFT| Self-interaction correction (SIC)                                       NO
 DFT| Cutoffs: density                                              1.000000E-10
 DFT|          gradient                                             1.000000E-10
 DFT|          tau                                                  1.000000E-10
 DFT|          cutoff_smoothing_range                               0.000000E+00
 DFT| XC density smoothing                                                  NONE
 DFT| XC derivatives                                                          PW

 FUNCTIONAL| PBE:
 FUNCTIONAL| J.P.Perdew, K.Burke, M.Ernzerhof, Phys. Rev. Letter, vol. 77, n 18,
 FUNCTIONAL|  pp. 3865-3868, (1996){spin unpolarized}                           

 vdW POTENTIAL|                                                   Pair Potential
 vdW POTENTIAL|          DFT-D3 (Version 3.1)
 vdW POTENTIAL|          Potential Form: S. Grimme et al, JCP 132: 154104 (2010)
 vdW POTENTIAL|          Zero Damping
 vdW POTENTIAL|          Cutoff Radius [Bohr]:                             20.00
 vdW POTENTIAL|          s6 Scaling Factor:                               1.0000
 vdW POTENTIAL|          sr6 Scaling Factor:                              1.2170
 vdW POTENTIAL|          s8 Scaling Factor:                               0.7220
 vdW POTENTIAL|          Cutoff for CN calculation:                   0.1000E-05

 QS| Method:                                                                 GPW
 QS| Density plane wave grid type                        NON-SPHERICAL FULLSPACE
 QS| Number of grid levels:                                                    4
 QS| Density cutoff [a.u.]:                                                200.0
 QS| Multi grid cutoff [a.u.]: 1) grid level                               200.0
 QS|                           2) grid level                                66.7
 QS|                           3) grid level                                22.2
 QS|                           4) grid level                                 7.4
 QS| Grid level progression factor:                                          3.0
 QS| Relative density cutoff [a.u.]:                                        20.0
 QS| Interaction thresholds: eps_pgf_orb:                                3.2E-07
 QS|                         eps_filter_matrix:                          0.0E+00
 QS|                         eps_core_charge:                            1.0E-15
 QS|                         eps_rho_gspace:                             1.0E-13
 QS|                         eps_rho_rspace:                             1.0E-13
 QS|                         eps_gvg_rspace:                             3.2E-07
 QS|                         eps_ppl:                                    1.0E-02
 QS|                         eps_ppnl:                                   3.2E-09


 ATOMIC KIND INFORMATION

  1. Atomic kind: Pt                                    Number of atoms:     216

     Orbital Basis Set                      DZVP-A5-Q10-323-MOL-T1-DERIVED_SET-1

       Number of orbital shell sets:                                           1
       Number of orbital shells:                                               6
       Number of primitive Cartesian functions:                                5
       Number of Cartesian basis functions:                                   23
       Number of spherical basis functions:                                   20
       Norm type:                                                              2

       Normalised Cartesian orbitals:

                        Set   Shell   Orbital            Exponent    Coefficient

                          1       1    2s                2.521825       0.177473
                                                         1.453920      -0.063399
                                                         0.614053      -0.407089
                                                         0.232656       0.262254
                                                         0.074788       0.047371

                          1       2    3s                2.521825      -0.049056
                                                         1.453920       0.044904
                                                         0.614053      -0.009756
                                                         0.232656      -0.144709
                                                         0.074788       0.144085

                          1       3    3px               2.521825      -0.317572
                                                         1.453920       0.534826
                                                         0.614053      -0.489458
                                                         0.232656       0.245631
                                                         0.074788       0.018221
                          1       3    3py               2.521825      -0.317572
                                                         1.453920       0.534826
                                                         0.614053      -0.489458
                                                         0.232656       0.245631
                                                         0.074788       0.018221
                          1       3    3pz               2.521825      -0.317572
                                                         1.453920       0.534826
                                                         0.614053      -0.489458
                                                         0.232656       0.245631
                                                         0.074788       0.018221

                          1       4    4dx2              2.521825       3.008522
                                                         1.453920      -1.224251
                                                         0.614053       0.225691
                                                         0.232656       0.125144
                                                         0.074788      -0.015348
                          1       4    4dxy              2.521825       5.210912
                                                         1.453920      -2.120465
                                                         0.614053       0.390909
                                                         0.232656       0.216756
                                                         0.074788      -0.026584
                          1       4    4dxz              2.521825       5.210912
                                                         1.453920      -2.120465
                                                         0.614053       0.390909
                                                         0.232656       0.216756
                                                         0.074788      -0.026584
                          1       4    4dy2              2.521825       3.008522
                                                         1.453920      -1.224251
                                                         0.614053       0.225691
                                                         0.232656       0.125144
                                                         0.074788      -0.015348
                          1       4    4dyz              2.521825       5.210912
                                                         1.453920      -2.120465
                                                         0.614053       0.390909
                                                         0.232656       0.216756
                                                         0.074788      -0.026584
                          1       4    4dz2              2.521825       3.008522
                                                         1.453920      -1.224251
                                                         0.614053       0.225691
                                                         0.232656       0.125144
                                                         0.074788      -0.015348

                          1       5    5dx2              2.521825       0.698026
                                                         1.453920      -1.511486
                                                         0.614053      -0.335394
                                                         0.232656      -0.025564
                                                         0.074788      -0.002699
                          1       5    5dxy              2.521825       1.209017
                                                         1.453920      -2.617970
                                                         0.614053      -0.580920
                                                         0.232656      -0.044277
                                                         0.074788      -0.004674
                          1       5    5dxz              2.521825       1.209017
                                                         1.453920      -2.617970
                                                         0.614053      -0.580920
                                                         0.232656      -0.044277
                                                         0.074788      -0.004674
                          1       5    5dy2              2.521825       0.698026
                                                         1.453920      -1.511486
                                                         0.614053      -0.335394
                                                         0.232656      -0.025564
                                                         0.074788      -0.002699
                          1       5    5dyz              2.521825       1.209017
                                                         1.453920      -2.617970
                                                         0.614053      -0.580920
                                                         0.232656      -0.044277
                                                         0.074788      -0.004674
                          1       5    5dz2              2.521825       0.698026
                                                         1.453920      -1.511486
                                                         0.614053      -0.335394
                                                         0.232656      -0.025564
                                                         0.074788      -0.002699

                          1       6    6dx2              2.521825       0.831079
                                                         1.453920      -0.709226
                                                         0.614053      -0.137351
                                                         0.232656       0.068642
                                                         0.074788       0.011745
                          1       6    6dxy              2.521825       1.439472
                                                         1.453920      -1.228415
                                                         0.614053      -0.237899
                                                         0.232656       0.118891
                                                         0.074788       0.020343
                          1       6    6dxz              2.521825       1.439472
                                                         1.453920      -1.228415
                                                         0.614053      -0.237899
                                                         0.232656       0.118891
                                                         0.074788       0.020343
                          1       6    6dy2              2.521825       0.831079
                                                         1.453920      -0.709226
                                                         0.614053      -0.137351
                                                         0.232656       0.068642
                                                         0.074788       0.011745
                          1       6    6dyz              2.521825       1.439472
                                                         1.453920      -1.228415
                                                         0.614053      -0.237899
                                                         0.232656       0.118891
                                                         0.074788       0.020343
                          1       6    6dz2              2.521825       0.831079
                                                         1.453920      -0.709226
                                                         0.614053      -0.137351
                                                         0.232656       0.068642
                                                         0.074788       0.011745

       Atomic covalent radius [Angstrom]:                                  1.300

       Atomic van der Waals radius [Angstrom]:                             1.750

     GTH Potential information for                                   GTH-PBE-q10

       Description:                       Goedecker-Teter-Hutter pseudopotential
                                           Goedecker et al., PRB 54, 1703 (1996)
                                          Hartwigsen et al., PRB 58, 3641 (1998)
                                                      Krack, TCA 114, 145 (2005)

       Gaussian exponent of the core charge distribution:               1.317676
       Electronic configuration (s p d ...):                           1   0   9

       Parameters of the local part of the GTH pseudopotential:

                          rloc        C1          C2          C3          C4
                        0.616000   11.313635

       Parameters of the non-local part of the GTH pseudopotential:

                   l      r(l)      h(i,j,l)

                   0    0.550904    4.733491   -1.784594
                                   -1.784594    2.303901
                   1    0.674138    2.534798   -1.778066
                                   -1.778066    2.103836
                   2    0.457392   -7.264011    2.558665
                                    2.558665   -2.901253


 MOLECULE KIND INFORMATION


 All atoms are their own molecule, skipping detailed information


 TOTAL NUMBERS AND MAXIMUM NUMBERS

  Total number of            - Atomic kinds:                                   1
                             - Atoms:                                        216
                             - Shell sets:                                   216
                             - Shells:                                      1296
                             - Primitive Cartesian functions:               1080
                             - Cartesian basis functions:                   4968
                             - Spherical basis functions:                   4320

  Maximum angular momentum of- Orbital basis functions:                        2
                             - Local part of the GTH pseudopotential:          0
                             - Non-local part of the GTH pseudopotential:      4


 MODULE QUICKSTEP:  ATOMIC COORDINATES IN angstrom

 Atom  Kind  Element       X           Y           Z          Z(eff)       Mass
    1   1 Pt  78       2.144840    0.479470   19.829933      10.0000    195.0840
    2   1 Pt  78       4.934840    0.429470   19.939933      10.0000    195.0840
    3   1 Pt  78       7.804840    0.539470   20.049934      10.0000    195.0840
    4   1 Pt  78      10.574841    0.409470   19.859935      10.0000    195.0840
    5   1 Pt  78      13.304841    0.419470   19.939933      10.0000    195.0840
    6   1 Pt  78      16.084841    0.419470   19.829933      10.0000    195.0840
    7   1 Pt  78       3.624840    2.919470   19.929935      10.0000    195.0840
    8   1 Pt  78       6.394840    2.789470   20.149936      10.0000    195.0840
    9   1 Pt  78       9.184840    2.929470   20.039932      10.0000    195.0840
   10   1 Pt  78      11.994841    2.839470   19.969932      10.0000    195.0840
   11   1 Pt  78      14.714841    2.849470   20.109935      10.0000    195.0840
   12   1 Pt  78       0.744840    2.719470   19.849937      10.0000    195.0840
   13   1 Pt  78       5.034840    5.379470   19.859935      10.0000    195.0840
   14   1 Pt  78       7.794840    5.379470   19.959934      10.0000    195.0840
   15   1 Pt  78      10.584840    5.249470   19.959934      10.0000    195.0840
   16   1 Pt  78      13.414840    5.319470   19.889934      10.0000    195.0840
   17   1 Pt  78      -0.765160    5.159471   19.949936      10.0000    195.0840
   18   1 Pt  78       2.124840    5.269470   19.769935      10.0000    195.0840
   19   1 Pt  78       6.624840    7.839471   19.909935      10.0000    195.0840
   20   1 Pt  78       9.334840    7.729470   19.709934      10.0000    195.0840
   21   1 Pt  78      12.024840    7.799470   19.849937      10.0000    195.0840
   22   1 Pt  78      -2.015160    7.719470   19.969932      10.0000    195.0840
   23   1 Pt  78       0.674840    7.729470   20.119934      10.0000    195.0840
   24   1 Pt  78       3.594840    7.809470   19.919937      10.0000    195.0840
   25   1 Pt  78       7.734840   10.279470   19.949936      10.0000    195.0840
   26   1 Pt  78      10.484840   10.169471   19.819934      10.0000    195.0840
   27   1 Pt  78      -3.495160   10.119471   20.049934      10.0000    195.0840
   28   1 Pt  78      -0.745160   10.149471   20.089935      10.0000    195.0840
   29   1 Pt  78       2.154840   10.229470   20.069934      10.0000    195.0840
   30   1 Pt  78       4.904840   10.259470   19.929935      10.0000    195.0840
   31   1 Pt  78       9.054840   12.609471   19.779937      10.0000    195.0840
   32   1 Pt  78      -5.135160   12.579471   19.809932      10.0000    195.0840
   33   1 Pt  78      -2.085160   12.549471   19.989936      10.0000    195.0840
   34   1 Pt  78       0.684840   12.689470   19.919937      10.0000    195.0840
   35   1 Pt  78       3.474840   12.649471   20.039932      10.0000    195.0840
   36   1 Pt  78       6.354840   12.639470   19.979934      10.0000    195.0840
   37   1 Pt  78       0.544840    1.259470   22.199936      10.0000    195.0840
   38   1 Pt  78       3.454840    1.159470   22.199936      10.0000    195.0840
   39   1 Pt  78       6.274840    1.189470   22.359935      10.0000    195.0840
   40   1 Pt  78       9.084840    1.269470   22.439933      10.0000    195.0840
   41   1 Pt  78      11.834840    1.209470   22.399933      10.0000    195.0840
   42   1 Pt  78      14.704841    1.259470   22.299934      10.0000    195.0840
   43   1 Pt  78       2.194840    3.729470   22.159935      10.0000    195.0840
   44   1 Pt  78       4.944840    3.779471   22.259933      10.0000    195.0840
   45   1 Pt  78       7.824841    3.679470   22.429935      10.0000    195.0840
   46   1 Pt  78      10.654841    3.729470   22.329933      10.0000    195.0840
   47   1 Pt  78      13.314840    3.659470   22.309932      10.0000    195.0840
   48   1 Pt  78      -0.715160    3.719470   22.309932      10.0000    195.0840
   49   1 Pt  78       3.624840    6.169470   22.139934      10.0000    195.0840
   50   1 Pt  78       6.344841    6.089471   22.239933      10.0000    195.0840
   51   1 Pt  78       9.094840    6.109471   22.199936      10.0000    195.0840
   52   1 Pt  78      11.914840    6.189470   22.229934      10.0000    195.0840
   53   1 Pt  78      -2.115160    6.049470   22.329933      10.0000    195.0840
   54   1 Pt  78       0.804840    6.089471   22.149936      10.0000    195.0840
   55   1 Pt  78       5.004840    8.589470   22.279937      10.0000    195.0840
   56   1 Pt  78       7.754840    8.649470   22.309932      10.0000    195.0840
   57   1 Pt  78      10.404840    8.469471   22.169933      10.0000    195.0840
   58   1 Pt  78      -3.495160    8.599471   22.259933      10.0000    195.0840
   59   1 Pt  78      -0.685160    8.419471   22.459934      10.0000    195.0840
   60   1 Pt  78       2.244840    8.589470   22.289936      10.0000    195.0840
   61   1 Pt  78       6.314840   10.949471   22.359935      10.0000    195.0840
   62   1 Pt  78       9.164841   11.029471   22.219936      10.0000    195.0840
   63   1 Pt  78      -4.915161   11.049470   22.209934      10.0000    195.0840
   64   1 Pt  78      -2.095160   11.019470   22.349937      10.0000    195.0840
   65   1 Pt  78       0.744840   11.009471   22.329933      10.0000    195.0840
   66   1 Pt  78       3.544840   10.939471   22.309932      10.0000    195.0840
   67   1 Pt  78       7.634840   13.369470   22.299934      10.0000    195.0840
   68   1 Pt  78      -6.285160   13.329471   22.119934      10.0000    195.0840
   69   1 Pt  78      -3.475160   13.319471   22.179935      10.0000    195.0840
   70   1 Pt  78      -0.565160   13.409471   22.199936      10.0000    195.0840
   71   1 Pt  78       2.114840   13.369470   22.439933      10.0000    195.0840
   72   1 Pt  78       4.884840   13.439471   22.339935      10.0000    195.0840
   73   1 Pt  78      -7.765161   14.229471   24.529937      10.0000    195.0840
   74   1 Pt  78      -4.865160   14.269470   24.409935      10.0000    195.0840
   75   1 Pt  78      -2.035160   14.119471   24.539936      10.0000    195.0840
   76   1 Pt  78       0.674840   14.109471   24.699936      10.0000    195.0840
   77   1 Pt  78       3.514840   14.159472   24.619934      10.0000    195.0840
   78   1 Pt  78       6.284840   14.259471   24.729938      10.0000    195.0840
   79   1 Pt  78       2.114840    2.099470   24.489936      10.0000    195.0840
   80   1 Pt  78       4.934840    2.179470   24.539936      10.0000    195.0840
   81   1 Pt  78       7.724841    2.089470   24.689933      10.0000    195.0840
   82   1 Pt  78      10.444840    1.909470   24.639934      10.0000    195.0840
   83   1 Pt  78      13.344840    2.039470   24.669937      10.0000    195.0840
   84   1 Pt  78      -0.705160    2.009470   24.659935      10.0000    195.0840
   85   1 Pt  78       3.594840    4.549470   24.619934      10.0000    195.0840
   86   1 Pt  78       6.334840    4.569471   24.629936      10.0000    195.0840
   87   1 Pt  78       9.234840    4.479470   24.649933      10.0000    195.0840
   88   1 Pt  78      11.904841    4.489471   24.649933      10.0000    195.0840
   89   1 Pt  78      -2.085160    4.459470   24.569934      10.0000    195.0840
   90   1 Pt  78       0.724840    4.439470   24.579933      10.0000    195.0840
   91   1 Pt  78       4.974840    6.989471   24.599937      10.0000    195.0840
   92   1 Pt  78       7.714840    6.969470   24.569934      10.0000    195.0840
   93   1 Pt  78      10.484840    7.049471   24.499935      10.0000    195.0840
   94   1 Pt  78      -3.585160    6.929470   24.559936      10.0000    195.0840
   95   1 Pt  78      -0.635160    6.859471   24.629936      10.0000    195.0840
   96   1 Pt  78       2.104840    6.869471   24.539936      10.0000    195.0840
   97   1 Pt  78       6.324840    9.419471   24.619934      10.0000    195.0840
   98   1 Pt  78       9.164841    9.359471   24.479934      10.0000    195.0840
   99   1 Pt  78      -4.885160    9.379470   24.519935      10.0000    195.0840
  100   1 Pt  78      -2.155160    9.269470   24.519935      10.0000    195.0840
  101   1 Pt  78       0.774840    9.289470   24.639934      10.0000    195.0840
  102   1 Pt  78       3.484840    9.379470   24.649933      10.0000    195.0840
  103   1 Pt  78       7.714840   11.809471   24.609935      10.0000    195.0840
  104   1 Pt  78      -6.395161   11.779472   24.439933      10.0000    195.0840
  105   1 Pt  78      -3.495160   11.829471   24.559936      10.0000    195.0840
  106   1 Pt  78      -0.685160   11.659471   24.559936      10.0000    195.0840
  107   1 Pt  78       2.064840   11.789470   24.689933      10.0000    195.0840
  108   1 Pt  78       4.834840   11.849471   24.629936      10.0000    195.0840
  109   1 Pt  78       2.134840    0.449470   26.767933      10.0000    195.0840
  110   1 Pt  78       4.914840    0.359470   26.827933      10.0000    195.0840
  111   1 Pt  78       7.704840    0.429470   26.907933      10.0000    195.0840
  112   1 Pt  78      10.434840    0.359470   27.057933      10.0000    195.0840
  113   1 Pt  78      13.254841    0.339470   26.947933      10.0000    195.0840
  114   1 Pt  78      16.054841    0.429470   26.977933      10.0000    195.0840
  115   1 Pt  78       3.534840    2.789470   26.847933      10.0000    195.0840
  116   1 Pt  78       6.254840    2.889470   27.007933      10.0000    195.0840
  117   1 Pt  78       9.084840    2.889470   26.957933      10.0000    195.0840
  118   1 Pt  78      11.834840    2.769470   26.947933      10.0000    195.0840
  119   1 Pt  78      14.714841    2.819470   26.927933      10.0000    195.0840
  120   1 Pt  78       0.694840    2.789470   26.937933      10.0000    195.0840
  121   1 Pt  78       4.894840    5.309470   27.027933      10.0000    195.0840
  122   1 Pt  78       7.664840    5.369470   26.917933      10.0000    195.0840
  123   1 Pt  78      10.404840    5.389470   26.887933      10.0000    195.0840
  124   1 Pt  78      13.194840    5.229470   26.837933      10.0000    195.0840
  125   1 Pt  78      -0.735160    5.249470   26.847933      10.0000    195.0840
  126   1 Pt  78       2.184840    5.219470   26.877933      10.0000    195.0840
  127   1 Pt  78       6.304840    7.799470   26.907933      10.0000    195.0840
  128   1 Pt  78       9.074841    7.849470   26.967933      10.0000    195.0840
  129   1 Pt  78      11.904841    7.729470   26.887933      10.0000    195.0840
  130   1 Pt  78      -2.135160    7.679471   26.817933      10.0000    195.0840
  131   1 Pt  78       0.764840    7.599471   26.927933      10.0000    195.0840
  132   1 Pt  78       3.504840    7.709470   26.927933      10.0000    195.0840
  133   1 Pt  78       7.714840   10.199472   26.867933      10.0000    195.0840
  134   1 Pt  78      10.514840   10.189470   26.797933      10.0000    195.0840
  135   1 Pt  78      -3.455160   10.159471   26.757933      10.0000    195.0840
  136   1 Pt  78      -0.745160   10.089471   26.947933      10.0000    195.0840
  137   1 Pt  78       1.974840   10.169471   26.997933      10.0000    195.0840
  138   1 Pt  78       4.874840   10.149471   26.837933      10.0000    195.0840
  139   1 Pt  78       9.074841   12.669471   26.897933      10.0000    195.0840
  140   1 Pt  78      -5.045160   12.509471   26.697933      10.0000    195.0840
  141   1 Pt  78      -2.185160   12.509471   26.957933      10.0000    195.0840
  142   1 Pt  78       0.574840   12.469471   26.987933      10.0000    195.0840
  143   1 Pt  78       3.404840   12.599471   27.017933      10.0000    195.0840
  144   1 Pt  78       6.234840   12.539471   26.967933      10.0000    195.0840
  145   1 Pt  78       0.634840    1.059470   29.087933      10.0000    195.0840
  146   1 Pt  78       3.404840    1.179470   29.107933      10.0000    195.0840
  147   1 Pt  78       6.274840    0.959470   29.237933      10.0000    195.0840
  148   1 Pt  78       9.004840    1.259470   29.207933      10.0000    195.0840
  149   1 Pt  78      11.874841    1.139470   29.407933      10.0000    195.0840
  150   1 Pt  78      14.654840    1.129470   29.267933      10.0000    195.0840
  151   1 Pt  78       2.074840    3.529470   29.207933      10.0000    195.0840
  152   1 Pt  78       4.824840    3.469470   29.237933      10.0000    195.0840
  153   1 Pt  78       7.664840    3.699470   29.407933      10.0000    195.0840
  154   1 Pt  78      10.474840    3.769470   29.267933      10.0000    195.0840
  155   1 Pt  78      13.384841    3.639470   29.137933      10.0000    195.0840
  156   1 Pt  78      -0.775160    3.649470   29.147933      10.0000    195.0840
  157   1 Pt  78       3.424840    6.019471   29.277933      10.0000    195.0840
  158   1 Pt  78       6.264840    6.199470   29.227933      10.0000    195.0840
  159   1 Pt  78       9.064840    6.129470   29.197933      10.0000    195.0840
  160   1 Pt  78      11.954841    6.129470   29.277933      10.0000    195.0840
  161   1 Pt  78      -2.215160    6.089471   29.097933      10.0000    195.0840
  162   1 Pt  78       0.614840    6.089471   29.317933      10.0000    195.0840
  163   1 Pt  78       4.844840    8.479470   29.327933      10.0000    195.0840
  164   1 Pt  78       7.574840    8.549470   29.437933      10.0000    195.0840
  165   1 Pt  78      10.524840    8.469471   29.147933      10.0000    195.0840
  166   1 Pt  78      -3.475160    8.549470   29.197933      10.0000    195.0840
  167   1 Pt  78      -0.725160    8.419471   29.327933      10.0000    195.0840
  168   1 Pt  78       2.024840    8.399470   29.187933      10.0000    195.0840
  169   1 Pt  78       6.274840   10.879471   29.307933      10.0000    195.0840
  170   1 Pt  78       9.064840   10.879471   29.137933      10.0000    195.0840
  171   1 Pt  78      -4.965160   10.859471   29.077933      10.0000    195.0840
  172   1 Pt  78      -2.005160   10.859471   29.217933      10.0000    195.0840
  173   1 Pt  78       0.724840   10.879471   29.367933      10.0000    195.0840
  174   1 Pt  78       3.544840   10.859471   29.257933      10.0000    195.0840
  175   1 Pt  78       7.644840   13.339471   29.187933      10.0000    195.0840
  176   1 Pt  78      -6.425160   13.299470   29.077933      10.0000    195.0840
  177   1 Pt  78      -3.555161   13.199471   29.127933      10.0000    195.0840
  178   1 Pt  78      -0.695160   13.239472   29.237933      10.0000    195.0840
  179   1 Pt  78       2.024840   13.329471   29.257933      10.0000    195.0840
  180   1 Pt  78       4.824840   13.229470   29.327933      10.0000    195.0840
  181   1 Pt  78      -7.735161   14.079471   31.447934      10.0000    195.0840
  182   1 Pt  78      -4.885160   14.029472   31.317934      10.0000    195.0840
  183   1 Pt  78      -2.035160   14.029472   31.527934      10.0000    195.0840
  184   1 Pt  78       0.774840   14.159472   31.637934      10.0000    195.0840
  185   1 Pt  78       3.504840   14.089471   31.637934      10.0000    195.0840
  186   1 Pt  78       6.214840   14.209472   31.627933      10.0000    195.0840
  187   1 Pt  78       2.004840    1.859470   31.517933      10.0000    195.0840
  188   1 Pt  78       4.844840    1.879470   31.407933      10.0000    195.0840
  189   1 Pt  78       7.584840    1.859470   31.607933      10.0000    195.0840
  190   1 Pt  78      10.504840    2.039470   31.687933      10.0000    195.0840
  191   1 Pt  78      13.324841    1.959470   31.647933      10.0000    195.0840
  192   1 Pt  78      -0.715160    1.829470   31.337933      10.0000    195.0840
  193   1 Pt  78       3.614840    4.259471   31.477933      10.0000    195.0840
  194   1 Pt  78       6.514840    4.359471   31.647933      10.0000    195.0840
  195   1 Pt  78       9.234840    4.409470   31.707933      10.0000    195.0840
  196   1 Pt  78      11.924841    4.349470   31.457933      10.0000    195.0840
  197   1 Pt  78      -2.065160    4.459470   31.617933      10.0000    195.0840
  198   1 Pt  78       0.734840    4.369471   31.437934      10.0000    195.0840
  199   1 Pt  78       4.944840    6.839470   31.557933      10.0000    195.0840
  200   1 Pt  78       7.714840    6.819471   31.557933      10.0000    195.0840
  201   1 Pt  78      10.634840    6.779471   31.497933      10.0000    195.0840
  202   1 Pt  78      -3.455160    6.759471   31.677934      10.0000    195.0840
  203   1 Pt  78      -0.685160    6.779471   31.657933      10.0000    195.0840
  204   1 Pt  78       2.154840    6.669471   31.527934      10.0000    195.0840
  205   1 Pt  78       6.314840    9.319471   31.767934      10.0000    195.0840
  206   1 Pt  78       9.104840    9.069471   31.577934      10.0000    195.0840
  207   1 Pt  78      -4.915161    9.269470   31.607933      10.0000    195.0840
  208   1 Pt  78      -2.195160    9.139470   31.607933      10.0000    195.0840
  209   1 Pt  78       0.674840    9.179470   31.597933      10.0000    195.0840
  210   1 Pt  78       3.474840    9.289470   31.617933      10.0000    195.0840
  211   1 Pt  78       7.704840   11.629471   31.497933      10.0000    195.0840
  212   1 Pt  78      -6.305161   11.609471   31.547934      10.0000    195.0840
  213   1 Pt  78      -3.415160   11.609471   31.467933      10.0000    195.0840
  214   1 Pt  78      -0.615160   11.599471   31.697933      10.0000    195.0840
  215   1 Pt  78       2.184840   11.729471   31.637934      10.0000    195.0840
  216   1 Pt  78       4.944840   11.669471   31.577934      10.0000    195.0840




 SCF PARAMETERS         Density guess:                                   RESTART
                        --------------------------------------------------------
                        max_scf:                                             500
                        max_scf_history:                                       0
                        max_diis:                                              4
                        --------------------------------------------------------
                        eps_scf:                                        1.00E-06
                        eps_scf_history:                                0.00E+00
                        eps_diis:                                       1.00E-01
                        eps_eigval:                                     1.00E-05
                        --------------------------------------------------------
                        level_shift [a.u.]:                             0.000000
                        added MOs                                       500    0
                        --------------------------------------------------------
                        Mixing method:                            BROYDEN_MIXING
                                                charge density mixing in g-space
                        --------------------------------------------------------
                        Smear method:                                FERMI_DIRAC
                        Electronic temperature [K]:                        300.0
                        Electronic temperature [a.u.]:                  9.50E-04
                        Accuracy threshold:                             1.00E-10
                        --------------------------------------------------------
                        No outer SCF

 PW_GRID| Information for grid number                                          1
 PW_GRID| Grid distributed over                                    32 processors
 PW_GRID| Real space group dimensions                                    32    1
 PW_GRID| the grid is blocked:                                                NO
 PW_GRID| Cutoff [a.u.]                                                    200.0
 PW_GRID| spherical cutoff:                                                   NO
 PW_GRID|   Bounds   1           -105     104                Points:         210
 PW_GRID|   Bounds   2           -105     104                Points:         210
 PW_GRID|   Bounds   3           -315     314                Points:         630
 PW_GRID| Volume element (a.u.^3)  0.3081E-02     Volume (a.u.^3)     85609.9578
 PW_GRID| Grid span                                                    FULLSPACE
 PW_GRID|   Distribution                         Average         Max         Min
 PW_GRID|   G-Vectors                           868218.8      868350      868140
 PW_GRID|   G-Rays                                4134.4        4135        4134
 PW_GRID|   Real Space Points                   868218.8      926100      793800

 PW_GRID| Information for grid number                                          2
 PW_GRID| Number of the reference grid                                         1
 PW_GRID| Grid distributed over                                    32 processors
 PW_GRID| Real space group dimensions                                    32    1
 PW_GRID| the grid is blocked:                                                NO
 PW_GRID| Cutoff [a.u.]                                                     66.7
 PW_GRID| spherical cutoff:                                                   NO
 PW_GRID|   Bounds   1            -60      59                Points:         120
 PW_GRID|   Bounds   2            -60      59                Points:         120
 PW_GRID|   Bounds   3           -180     179                Points:         360
 PW_GRID| Volume element (a.u.^3)  0.1651E-01     Volume (a.u.^3)     85609.9578
 PW_GRID| Grid span                                                    FULLSPACE
 PW_GRID|   Distribution                         Average         Max         Min
 PW_GRID|   G-Vectors                           162000.0      162840      161280
 PW_GRID|   G-Rays                                1350.0        1357        1344
 PW_GRID|   Real Space Points                   162000.0      172800      129600

 PW_GRID| Information for grid number                                          3
 PW_GRID| Number of the reference grid                                         1
 PW_GRID| Grid distributed over                                    32 processors
 PW_GRID| Real space group dimensions                                    32    1
 PW_GRID| the grid is blocked:                                                NO
 PW_GRID| Cutoff [a.u.]                                                     22.2
 PW_GRID| spherical cutoff:                                                   NO
 PW_GRID|   Bounds   1            -35      34                Points:          70
 PW_GRID|   Bounds   2            -35      34                Points:          70
 PW_GRID|   Bounds   3           -105     104                Points:         210
 PW_GRID| Volume element (a.u.^3)  0.8320E-01     Volume (a.u.^3)     85609.9578
 PW_GRID| Grid span                                                    FULLSPACE
 PW_GRID|   Distribution                         Average         Max         Min
 PW_GRID|   G-Vectors                            32156.2       32340       31990
 PW_GRID|   G-Rays                                 459.4         462         457
 PW_GRID|   Real Space Points                    32156.2       44100       29400

 PW_GRID| Information for grid number                                          4
 PW_GRID| Number of the reference grid                                         1
 PW_GRID| Grid distributed over                                    32 processors
 PW_GRID| Real space group dimensions                                    32    1
 PW_GRID| the grid is blocked:                                                NO
 PW_GRID| Cutoff [a.u.]                                                      7.4
 PW_GRID| spherical cutoff:                                                   NO
 PW_GRID|   Bounds   1            -20      19                Points:          40
 PW_GRID|   Bounds   2            -20      19                Points:          40
 PW_GRID|   Bounds   3            -60      59                Points:         120
 PW_GRID| Volume element (a.u.^3)  0.4459         Volume (a.u.^3)     85609.9578
 PW_GRID| Grid span                                                    FULLSPACE
 PW_GRID|   Distribution                         Average         Max         Min
 PW_GRID|   G-Vectors                             6000.0        6120        5920
 PW_GRID|   G-Rays                                 150.0         153         148
 PW_GRID|   Real Space Points                     6000.0        9600        4800

 POISSON| Solver                                          IMPLICIT (GENERALIZED)
 POISSON| Boundary Condition                                PERIODIC & DIRICHLET
 POISSON| Maximum number of iterations                                        30
 POISSON| Convergence threshold                                         1.00E-08
 POISSON| Dielectric Constant                                              80.00
 POISSON| Relaxation parameter                                          1.00E+00

 RS_GRID| Information for grid number                                          1
 RS_GRID|   Bounds   1           -105     104                Points:         210
 RS_GRID|   Bounds   2           -105     104                Points:         210
 RS_GRID|   Bounds   3           -315     314                Points:         630
 RS_GRID| Real space distribution over                                 32 groups
 RS_GRID| Real space distribution along direction                              3
 RS_GRID| Border size                                                         54
 RS_GRID|   Distribution                         Average         Max         Min
 RS_GRID|   Planes                                 127.7         128         127

 RS_GRID| Information for grid number                                          2
 RS_GRID|   Bounds   1            -60      59                Points:         120
 RS_GRID|   Bounds   2            -60      59                Points:         120
 RS_GRID|   Bounds   3           -180     179                Points:         360
 RS_GRID| Real space distribution over                                 32 groups
 RS_GRID| Real space distribution along direction                              3
 RS_GRID| Border size                                                         36
 RS_GRID|   Distribution                         Average         Max         Min
 RS_GRID|   Planes                                  83.2          84          83

 RS_GRID| Information for grid number                                          3
 RS_GRID|   Bounds   1            -35      34                Points:          70
 RS_GRID|   Bounds   2            -35      34                Points:          70
 RS_GRID|   Bounds   3           -105     104                Points:         210
 RS_GRID| Real space fully replicated
 RS_GRID| Group size                                                           1

 RS_GRID| Information for grid number                                          4
 RS_GRID|   Bounds   1            -20      19                Points:          40
 RS_GRID|   Bounds   2            -20      19                Points:          40
 RS_GRID|   Bounds   3            -60      59                Points:         120
 RS_GRID| Real space fully replicated
 RS_GRID| Group size                                                           1

 Number of electrons:                                                       2160
 Number of occupied orbitals:                                               1080
 Number of molecular orbitals:                                              1580

 Number of orbital functions:                                               4320
 Number of independent orbital functions:                                   4320

 Extrapolation method: initial_guess


 SCF WAVEFUNCTION OPTIMIZATION

  Step     Update method      Time    Convergence         Total energy    Change
  ------------------------------------------------------------------------------

  POISSON| IMPLICIT (GENERALIZED) SOLVER ---------------------------------------
  POISSON| Preparing Dirichlet regions ...
  POISSON| Dirichlet region    1
  POISSON|     type : axis-aligned planar
  POISSON|     applied potential :   0.0000E+00  [Eh/e]
  POISSON| Dirichlet region    2
  POISSON|     type : axis-aligned planar
  POISSON|     applied potential :   0.0000E+00  [Eh/e]
  POISSON| ... Done. 
  ------------------------------------------------------------------------------

  POISSON|   iter        pres error      nabs error        E_hartree    delta E
  POISSON|      1        0.3745E-06      0.3303E-01    1992.0393590843  0.20E+04
  POISSON|      2        0.1333E-14      0.3745E-06    1992.0393590843  0.23E-10
  POISSON| Poisson solver converged in 2 iterations.
     1 NoMix/Diag. 0.30E+00   11.1     0.23234659     -5670.7375308804 -5.67E+03
  POISSON|   iter        pres error      nabs error        E_hartree    delta E
  POISSON|      1        0.2467E-04      0.3280E-01    1991.9269560543 -0.11E+00
  POISSON|      2        0.6775E-15      0.2467E-04    1991.9269560543  0.23E-10
  POISSON| Poisson solver converged in 2 iterations.
     2 Broy./Diag. 0.30E+00   13.2     0.28888072     -5670.7822958171 -4.48E-02
  POISSON|   iter        pres error      nabs error        E_hartree    delta E
  POISSON|      1        0.5798E-04      0.3805E-03    1992.1306053492  0.20E+00
  POISSON|      2        0.1324E-16      0.5798E-04    1992.1306053492  0.45E-12
  POISSON| Poisson solver converged in 2 iterations.
     3 Broy./Diag. 0.30E+00   13.3     0.17606259     -5676.0772165592 -5.29E+00
  POISSON|   iter        pres error      nabs error        E_hartree    delta E
  POISSON|      1        0.7972E-04      0.3226E-03    1992.1803905657  0.50E-01
  POISSON|      2        0.7094E-17      0.7972E-04    1992.1803905657  0.00E+00
  POISSON| Poisson solver converged in 2 iterations.
     4 Broy./Diag. 0.30E+00   13.3     0.12516144     -5673.2971999759  2.78E+00
  POISSON|   iter        pres error      nabs error        E_hartree    delta E
  POISSON|      1        0.5356E-04      0.2151E-03    1992.2849491605  0.10E+00
  POISSON|      2        0.9371E-18      0.5356E-04    1992.2849491605 -0.23E-12
  POISSON| Poisson solver converged in 2 iterations.
     5 Broy./Diag. 0.30E+00   13.3     0.09461582     -5672.4637949612  8.33E-01
  POISSON|   iter        pres error      nabs error        E_hartree    delta E
  POISSON|      1        0.6002E-05      0.4700E-04    1992.4091444586  0.12E+00
  POISSON|      2        0.3805E-18      0.6002E-05    1992.4091444586  0.14E-11
  POISSON| Poisson solver converged in 2 iterations.
     6 Broy./Diag. 0.30E+00   13.3     0.04330404     -5672.7096579945 -2.46E-01
  POISSON|   iter        pres error      nabs error        E_hartree    delta E
  POISSON|      1        0.9734E-06      0.3918E-04    1992.5482452882  0.14E+00
  POISSON|      2        0.9607E-18      0.9734E-06    1992.5482452882  0.14E-11
  POISSON| Poisson solver converged in 2 iterations.
     7 Broy./Diag. 0.30E+00   13.4     0.03374356     -5672.4900625437  2.20E-01
  POISSON|   iter        pres error      nabs error        E_hartree    delta E
  POISSON|      1        0.5940E-06      0.3984E-04    1992.6374397844  0.89E-01
  POISSON|      2        0.1476E-17      0.5940E-06    1992.6374397844  0.23E-12
  POISSON| Poisson solver converged in 2 iterations.
     8 Broy./Diag. 0.30E+00   13.4     0.02596808     -5671.9517593563  5.38E-01
  POISSON|   iter        pres error      nabs error        E_hartree    delta E
  POISSON|      1        0.3894E-06      0.1079E-04    1992.6672516387  0.30E-01
  POISSON|      2        0.8707E-19      0.3894E-06    1992.6672516387  0.00E+00
  POISSON| Poisson solver converged in 2 iterations.
     9 Broy./Diag. 0.30E+00   13.5     0.00961029     -5672.3186228004 -3.67E-01
  POISSON|   iter        pres error      nabs error        E_hartree    delta E
  POISSON|      1        0.4174E-06      0.6069E-05    1992.6820052036  0.15E-01
  POISSON|      2        0.4471E-19      0.4174E-06    1992.6820052036  0.23E-12
  POISSON| Poisson solver converged in 2 iterations.
    10 Broy./Diag. 0.30E+00   13.5     0.00485661     -5672.2198418774  9.88E-02
  POISSON|   iter        pres error      nabs error        E_hartree    delta E
  POISSON|      1        0.1673E-06      0.5161E-05    1992.6904088271  0.84E-02
  POISSON|      2        0.1077E-18      0.1673E-06    1992.6904088271  0.00E+00
  POISSON| Poisson solver converged in 2 iterations.
    11 Broy./Diag. 0.30E+00   13.5     0.00382448     -5672.1940158071  2.58E-02
  POISSON|   iter        pres error      nabs error        E_hartree    delta E
  POISSON|      1        0.1887E-06      0.6153E-05    1992.6988283450  0.84E-02
  POISSON|      2        0.1665E-18      0.1887E-06    1992.6988283450  0.00E+00
  POISSON| Poisson solver converged in 2 iterations.
    12 Broy./Diag. 0.30E+00   13.5     0.00414600     -5672.1875890654  6.43E-03
  POISSON|   iter        pres error      nabs error        E_hartree    delta E
  POISSON|      1        0.1664E-06      0.3632E-05    1992.7056519914  0.68E-02
  POISSON|      2        0.5252E-19      0.1664E-06    1992.7056519914 -0.23E-12
  POISSON| Poisson solver converged in 2 iterations.
    13 Broy./Diag. 0.30E+00   13.5     0.00153451     -5672.2163471343 -2.88E-02
  POISSON|   iter        pres error      nabs error        E_hartree    delta E
  POISSON|      1        0.2354E-06      0.2069E-05    1992.7068950658  0.12E-02
  POISSON|      2        0.7592E-19      0.2354E-06    1992.7068950658 -0.23E-12
  POISSON| Poisson solver converged in 2 iterations.
    14 Broy./Diag. 0.30E+00   13.5     0.00105136     -5672.2014945586  1.49E-02
  POISSON|   iter        pres error      nabs error        E_hartree    delta E
  POISSON|      1        0.8153E-06      0.3481E-05    1992.7075445159  0.65E-03
  POISSON|      2        0.4522E-19      0.8153E-06    1992.7075445159  0.00E+00
  POISSON| Poisson solver converged in 2 iterations.
    15 Broy./Diag. 0.30E+00   13.6     0.00167068     -5672.2078358313 -6.34E-03
  POISSON|   iter        pres error      nabs error        E_hartree    delta E
  POISSON|      1        0.7354E-06      0.3118E-05    1992.7073927076 -0.15E-03
  POISSON|      2        0.8444E-19      0.7354E-06    1992.7073927076  0.23E-12
  POISSON| Poisson solver converged in 2 iterations.
    16 Broy./Diag. 0.30E+00   13.6     0.00188013     -5672.2044013631  3.43E-03
  POISSON|   iter        pres error      nabs error        E_hartree    delta E
  POISSON|      1        0.3913E-07      0.2046E-05    1992.7080465779  0.65E-03
  POISSON|      2        0.5611E-19      0.3913E-07    1992.7080465779  0.23E-12
  POISSON| Poisson solver converged in 2 iterations.
    17 Broy./Diag. 0.30E+00   13.5     0.00067201     -5672.2122436390 -7.84E-03
  POISSON|   iter        pres error      nabs error        E_hartree    delta E
  POISSON|      1        0.2633E-08      0.1327E-05    1992.7086703470  0.62E-03
  POISSON| Poisson solver converged in 1 iteration. 
    18 Broy./Diag. 0.30E+00   12.1     0.00042962     -5672.2145090666 -2.27E-03
  POISSON|   iter        pres error      nabs error        E_hartree    delta E
  POISSON|      1        0.3272E-07      0.1899E-05    1992.7092099176  0.54E-03
  POISSON|      2        0.7378E-19      0.3272E-07    1992.7092099176  0.00E+00
  POISSON| Poisson solver converged in 2 iterations.
    19 Broy./Diag. 0.30E+00   13.6     0.00027653     -5672.2105430911  3.97E-03
  POISSON|   iter        pres error      nabs error        E_hartree    delta E
  POISSON|      1        0.3512E-10      0.1091E-05    1992.7097516955  0.54E-03
  POISSON| Poisson solver converged in 1 iteration. 
    20 Broy./Diag. 0.30E+00   12.1     0.00026104     -5672.2167699647 -6.23E-03
  POISSON|   iter        pres error      nabs error        E_hartree    delta E
  POISSON|      1        0.2815E-07      0.1043E-05    1992.7105113845  0.76E-03
  POISSON|      2        0.3396E-19      0.2815E-07    1992.7105113845  0.00E+00
  POISSON| Poisson solver converged in 2 iterations.
    21 Broy./Diag. 0.30E+00   13.5     0.00020293     -5672.2166636869  1.06E-04
  POISSON|   iter        pres error      nabs error        E_hartree    delta E
  POISSON|      1        0.2223E-07      0.1089E-05    1992.7111664835  0.66E-03
  POISSON|      2        0.3922E-19      0.2223E-07    1992.7111664835  0.00E+00
  POISSON| Poisson solver converged in 2 iterations.
    22 Broy./Diag. 0.30E+00   13.5     0.00023041     -5672.2153195117  1.34E-03
  POISSON|   iter        pres error      nabs error        E_hartree    delta E
  POISSON|      1        0.1097E-07      0.1207E-05    1992.7117865144  0.62E-03
  POISSON|      2        0.4733E-19      0.1097E-07    1992.7117865144  0.00E+00
  POISSON| Poisson solver converged in 2 iterations.
    23 Broy./Diag. 0.30E+00   13.5     0.00021849     -5672.2145691653  7.50E-04
  POISSON|   iter        pres error      nabs error        E_hartree    delta E
  POISSON|      1        0.1181E-07      0.8882E-06    1992.7123525672  0.57E-03
  POISSON|      2        0.3029E-19      0.1181E-07    1992.7123525672  0.23E-12
  POISSON| Poisson solver converged in 2 iterations.
    24 Broy./Diag. 0.30E+00   13.5     0.00013481     -5672.2173878853 -2.82E-03
  POISSON|   iter        pres error      nabs error        E_hartree    delta E
  POISSON|      1        0.7147E-07      0.6656E-06    1992.7126298959  0.28E-03
  POISSON|      2        0.2713E-19      0.7147E-07    1992.7126298959  0.23E-12
  POISSON| Poisson solver converged in 2 iterations.
    25 Broy./Diag. 0.30E+00   13.6     0.00020212     -5672.2162206805  1.17E-03
  POISSON|   iter        pres error      nabs error        E_hartree    delta E
  POISSON|      1        0.8826E-07      0.5498E-06    1992.7128222043  0.19E-03
  POISSON|      2        0.9183E-20      0.8826E-07    1992.7128222043 -0.23E-12
  POISSON| Poisson solver converged in 2 iterations.
    26 Broy./Diag. 0.30E+00   13.5     0.00018694     -5672.2166789273 -4.58E-04
  POISSON|   iter        pres error      nabs error        E_hartree    delta E
  POISSON|      1        0.4326E-07      0.8737E-06    1992.7130649405  0.24E-03
  POISSON|      2        0.3638E-19      0.4326E-07    1992.7130649405  0.00E+00
  POISSON| Poisson solver converged in 2 iterations.
    27 Broy./Diag. 0.30E+00   13.5     0.00015377     -5672.2161600750  5.19E-04
  POISSON|   iter        pres error      nabs error        E_hartree    delta E
  POISSON|      1        0.7776E-08      0.6864E-06    1992.7131829766  0.12E-03
  POISSON| Poisson solver converged in 1 iteration. 
    28 Broy./Diag. 0.30E+00   12.2     0.00009106     -5672.2170977180 -9.38E-04
  POISSON|   iter        pres error      nabs error        E_hartree    delta E
  POISSON|      1        0.1150E-08      0.5955E-06    1992.7133385254  0.16E-03
  POISSON| Poisson solver converged in 1 iteration. 
    29 Broy./Diag. 0.30E+00   12.1     0.00007586     -5672.2181163681 -1.02E-03
  POISSON|   iter        pres error      nabs error        E_hartree    delta E
  POISSON|      1        0.6959E-08      0.5777E-06    1992.7133842593  0.46E-04
  POISSON| Poisson solver converged in 1 iteration. 
    30 Broy./Diag. 0.30E+00   12.2     0.00004487     -5672.2173541777  7.62E-04
  POISSON|   iter        pres error      nabs error        E_hartree    delta E
  POISSON|      1        0.2066E-08      0.5033E-06    1992.7133894642  0.52E-05
  POISSON| Poisson solver converged in 1 iteration. 
    31 Broy./Diag. 0.30E+00   12.2     0.00005406     -5672.2180538907 -7.00E-04
  POISSON|   iter        pres error      nabs error        E_hartree    delta E
  POISSON|      1        0.2018E-08      0.5770E-06    1992.7134315657  0.42E-04
  POISSON| Poisson solver converged in 1 iteration. 
    32 Broy./Diag. 0.30E+00   12.2     0.00004903     -5672.2186706154 -6.17E-04
  POISSON|   iter        pres error      nabs error        E_hartree    delta E
  POISSON|      1        0.6600E-08      0.2715E-06    1992.7134370502  0.55E-05
  POISSON| Poisson solver converged in 1 iteration. 
    33 Broy./Diag. 0.30E+00   12.2     0.00006406     -5672.2189807131 -3.10E-04
  POISSON|   iter        pres error      nabs error        E_hartree    delta E
  POISSON|      1        0.2908E-08      0.3351E-06    1992.7134584579  0.21E-04
  POISSON| Poisson solver converged in 1 iteration. 
    34 Broy./Diag. 0.30E+00   12.2     0.00003308     -5672.2183726962  6.08E-04
  POISSON|   iter        pres error      nabs error        E_hartree    delta E
  POISSON|      1        0.1102E-07      0.2411E-06    1992.7135060775  0.48E-04
  POISSON|      2        0.8954E-20      0.1102E-07    1992.7135060775  0.00E+00
  POISSON| Poisson solver converged in 2 iterations.
    35 Broy./Diag. 0.30E+00   13.5     0.00004797     -5672.2190170527 -6.44E-04
  POISSON|   iter        pres error      nabs error        E_hartree    delta E
  POISSON|      1        0.2343E-07      0.9618E-07    1992.7135132477  0.72E-05
  POISSON|      2        0.2774E-20      0.2343E-07    1992.7135132477  0.00E+00
  POISSON| Poisson solver converged in 2 iterations.
    36 Broy./Diag. 0.30E+00   13.6     0.00004744     -5672.2189607155  5.63E-05
  POISSON|   iter        pres error      nabs error        E_hartree    delta E
  POISSON|      1        0.1167E-07      0.2786E-06    1992.7135956609  0.82E-04
  POISSON|      2        0.1041E-19      0.1167E-07    1992.7135956609  0.00E+00
  POISSON| Poisson solver converged in 2 iterations.
    37 Broy./Diag. 0.30E+00   13.6     0.00003984     -5672.2189915433 -3.08E-05
  POISSON|   iter        pres error      nabs error        E_hartree    delta E
  POISSON|      1        0.4286E-09      0.1781E-06    1992.7136633525  0.68E-04
  POISSON| Poisson solver converged in 1 iteration. 
    38 Broy./Diag. 0.30E+00   12.2     0.00002504     -5672.2187877498  2.04E-04
  POISSON|   iter        pres error      nabs error        E_hartree    delta E
  POISSON|      1        0.2038E-08      0.1466E-06    1992.7137076107  0.44E-04
  POISSON| Poisson solver converged in 1 iteration. 
    39 Broy./Diag. 0.30E+00   12.1     0.00002378     -5672.2186599962  1.28E-04
  POISSON|   iter        pres error      nabs error        E_hartree    delta E
  POISSON|      1        0.1342E-08      0.1348E-06    1992.7137641921  0.57E-04
  POISSON| Poisson solver converged in 1 iteration. 
    40 Broy./Diag. 0.30E+00   12.1     0.00001213     -5672.2189083982 -2.48E-04
  POISSON|   iter        pres error      nabs error        E_hartree    delta E
  POISSON|      1        0.1784E-08      0.1302E-06    1992.7138049487  0.41E-04
  POISSON| Poisson solver converged in 1 iteration. 
    41 Broy./Diag. 0.30E+00   12.1     0.00001141     -5672.2187221467  1.86E-04
  POISSON|   iter        pres error      nabs error        E_hartree    delta E
  POISSON|      1        0.1689E-09      0.1256E-06    1992.7138308115  0.26E-04
  POISSON| Poisson solver converged in 1 iteration. 
    42 Broy./Diag. 0.30E+00   12.1     0.00001141     -5672.2186761541  4.60E-05
  POISSON|   iter        pres error      nabs error        E_hartree    delta E
  POISSON|      1        0.1212E-08      0.1067E-06    1992.7138399067  0.91E-05
  POISSON| Poisson solver converged in 1 iteration. 
    43 Broy./Diag. 0.30E+00   12.1     0.00001733     -5672.2187242885 -4.81E-05
  POISSON|   iter        pres error      nabs error        E_hartree    delta E
  POISSON|      1        0.2155E-08      0.9333E-07    1992.7138519376  0.12E-04
  POISSON| Poisson solver converged in 1 iteration. 
    44 Broy./Diag. 0.30E+00   12.2     0.00001221     -5672.2189053097 -1.81E-04
  POISSON|   iter        pres error      nabs error        E_hartree    delta E
  POISSON|      1        0.2758E-08      0.1010E-06    1992.7138470304 -0.49E-05
  POISSON| Poisson solver converged in 1 iteration. 
    45 Broy./Diag. 0.30E+00   12.1     0.00001471     -5672.2187499649  1.55E-04
  POISSON|   iter        pres error      nabs error        E_hartree    delta E
  POISSON|      1        0.7942E-08      0.3734E-07    1992.7138445990 -0.24E-05
  POISSON| Poisson solver converged in 1 iteration. 
    46 Broy./Diag. 0.30E+00   12.2     0.00001795     -5672.2188402884 -9.03E-05
  POISSON|   iter        pres error      nabs error        E_hartree    delta E
  POISSON|      1        0.5234E-08      0.1222E-06    1992.7138346083 -0.10E-04
  POISSON| Poisson solver converged in 1 iteration. 
    47 Broy./Diag. 0.30E+00   12.1     0.00001364     -5672.2188149934  2.53E-05
  POISSON|   iter        pres error      nabs error        E_hartree    delta E
  POISSON|      1        0.5897E-09      0.8365E-07    1992.7138287683 -0.58E-05
  POISSON| Poisson solver converged in 1 iteration. 
    48 Broy./Diag. 0.30E+00   12.3     0.00000756     -5672.2189138057 -9.88E-05
  POISSON|   iter        pres error      nabs error        E_hartree    delta E
  POISSON|      1        0.4487E-09      0.4262E-07    1992.7138220205 -0.67E-05
  POISSON| Poisson solver converged in 1 iteration. 
    49 Broy./Diag. 0.30E+00   12.1     0.00000946     -5672.2189428183 -2.90E-05
  POISSON|   iter        pres error      nabs error        E_hartree    delta E
  POISSON|      1        0.1109E-08      0.8213E-07    1992.7138193030 -0.27E-05
  POISSON| Poisson solver converged in 1 iteration. 
    50 Broy./Diag. 0.30E+00   12.1     0.00000553     -5672.2188602752  8.25E-05
  POISSON|   iter        pres error      nabs error        E_hartree    delta E
  POISSON|      1        0.3111E-09      0.5826E-07    1992.7138210004  0.17E-05
  POISSON| Poisson solver converged in 1 iteration. 
    51 Broy./Diag. 0.30E+00   12.2     0.00000355     -5672.2189496931 -8.94E-05
  POISSON|   iter        pres error      nabs error        E_hartree    delta E
  POISSON|      1        0.3883E-09      0.4300E-07    1992.7138284825  0.75E-05
  POISSON| Poisson solver converged in 1 iteration. 
    52 Broy./Diag. 0.30E+00   12.2     0.00000430     -5672.2189463113  3.38E-06
  POISSON|   iter        pres error      nabs error        E_hartree    delta E
  POISSON|      1        0.2683E-09      0.5596E-07    1992.7138427117  0.14E-04
  POISSON| Poisson solver converged in 1 iteration. 
    53 Broy./Diag. 0.30E+00   12.2     0.00000384     -5672.2189161981  3.01E-05
  POISSON|   iter        pres error      nabs error        E_hartree    delta E
  POISSON|      1        0.7326E-09      0.2561E-07    1992.7138486526  0.59E-05
  POISSON| Poisson solver converged in 1 iteration. 
    54 Broy./Diag. 0.30E+00   12.2     0.00000479     -5672.2188763094  3.99E-05
  POISSON|   iter        pres error      nabs error        E_hartree    delta E
  POISSON|      1        0.4017E-09      0.3641E-07    1992.7138623982  0.14E-04
  POISSON| Poisson solver converged in 1 iteration. 
    55 Broy./Diag. 0.30E+00   12.1     0.00000512     -5672.2189334633 -5.72E-05
  POISSON|   iter        pres error      nabs error        E_hartree    delta E
  POISSON|      1        0.1899E-08      0.1461E-07    1992.7138657309  0.33E-05
  POISSON| Poisson solver converged in 1 iteration. 
    56 Broy./Diag. 0.30E+00   12.2     0.00000552     -5672.2188971843  3.63E-05
  POISSON|   iter        pres error      nabs error        E_hartree    delta E
  POISSON|      1        0.1410E-08      0.2848E-07    1992.7138747062  0.90E-05
  POISSON| Poisson solver converged in 1 iteration. 
    57 Broy./Diag. 0.30E+00   12.2     0.00000317     -5672.2188952748  1.91E-06
  POISSON|   iter        pres error      nabs error        E_hartree    delta E
  POISSON|      1        0.5192E-09      0.1917E-07    1992.7138797571  0.51E-05
  POISSON| Poisson solver converged in 1 iteration. 
    58 Broy./Diag. 0.30E+00   12.2     0.00000280     -5672.2188908636  4.41E-06
  POISSON|   iter        pres error      nabs error        E_hartree    delta E
  POISSON|      1        0.1215E-10      0.1853E-07    1992.7138834220  0.37E-05
  POISSON| Poisson solver converged in 1 iteration. 
    59 Broy./Diag. 0.30E+00   12.1     0.00000270     -5672.2188978352 -6.97E-06
  POISSON|   iter        pres error      nabs error        E_hartree    delta E
  POISSON|      1        0.3524E-09      0.1286E-07    1992.7138863403  0.29E-05
  POISSON| Poisson solver converged in 1 iteration. 
    60 Broy./Diag. 0.30E+00   12.1     0.00000185     -5672.2189259223 -2.81E-05
  POISSON|   iter        pres error      nabs error        E_hartree    delta E
  POISSON|      1        0.7185E-10      0.1375E-07    1992.7138869777  0.64E-06
  POISSON| Poisson solver converged in 1 iteration. 
    61 Broy./Diag. 0.30E+00   12.1     0.00000104     -5672.2189058623  2.01E-05
  POISSON|   iter        pres error      nabs error        E_hartree    delta E
  POISSON|      1        0.1864E-09      0.1134E-07    1992.7138864010 -0.58E-06
  POISSON| Poisson solver converged in 1 iteration. 
    62 Broy./Diag. 0.30E+00   12.2     0.00000117     -5672.2189203923 -1.45E-05
  POISSON|   iter        pres error      nabs error        E_hartree    delta E
  POISSON|      1        0.1077E-09      0.1710E-07    1992.7138851182 -0.13E-05
  POISSON| Poisson solver converged in 1 iteration. 
    63 Broy./Diag. 0.30E+00   12.1     0.00000085     -5672.2189304225 -1.00E-05

  *** SCF run converged in    63 steps ***


  Electronic density on regular grids:      -2159.9999999992        0.0000000008
  Core density on regular grids:             2159.9999999995       -0.0000000005
  Total charge density on r-space grids:        0.0000000003
  Total charge density g-space grids:           0.0000000003

  Overlap energy of the core charge distribution:               0.00003382562856
  Self energy of the core charge distribution:              -9891.63555570741482
  Core Hamiltonian energy:                                   3202.73177126372411
  Hartree energy:                                            1992.71388511818373
  Electric enthalpy:                                         1992.71388511818236
  Exchange-correlation energy:                               -971.29190005265946
  Dispersion energy:                                           -4.70383803894053
  Electronic entropic energy:                                  -0.03332680899310
  Fermi energy:                                                -0.20765078981440

  Total energy:                                             -5672.21893042253214

 The electron density is written in cube file format to the file:

 cp2k-ELECTRON_DENSITY-1_0.cube

 !-----------------------------------------------------------------------------!
                     Mulliken Population Analysis

 #  Atom  Element  Kind  Atomic population                           Net charge
       1     Pt       1         10.042018                             -0.042018
       2     Pt       1         10.057822                             -0.057822
       3     Pt       1         10.051052                             -0.051052
       4     Pt       1         10.035052                             -0.035052
       5     Pt       1         10.040311                             -0.040311
       6     Pt       1         10.034503                             -0.034503
       7     Pt       1         10.046152                             -0.046152
       8     Pt       1         10.061746                             -0.061746
       9     Pt       1         10.052568                             -0.052568
      10     Pt       1         10.035574                             -0.035574
      11     Pt       1         10.039211                             -0.039211
      12     Pt       1         10.050714                             -0.050714
      13     Pt       1         10.057646                             -0.057646
      14     Pt       1         10.039439                             -0.039439
      15     Pt       1         10.051463                             -0.051463
      16     Pt       1         10.038073                             -0.038073
      17     Pt       1         10.048078                             -0.048078
      18     Pt       1         10.059902                             -0.059902
      19     Pt       1         10.056847                             -0.056847
[...]
    191      1      Pt          0.00241589     0.00932526    -0.00712162
    192      1      Pt         -0.00155054     0.02312574     0.02212649
    193      1      Pt         -0.00912478     0.01160607     0.01035874
    194      1      Pt         -0.02557507     0.00814186     0.00605787
    195      1      Pt         -0.01139935     0.00204160    -0.00720722
    196      1      Pt          0.01969566     0.00040960     0.01246580
    197      1      Pt         -0.00393033    -0.01795738    -0.01453826
    198      1      Pt         -0.00708165    -0.01385026     0.01281050
    199      1      Pt         -0.00220483    -0.00683812     0.00991136
    200      1      Pt          0.00040795    -0.01673615     0.01217803
    201      1      Pt         -0.01037197     0.01094594     0.01251583
    202      1      Pt         -0.00389211     0.00356851    -0.00838461
    203      1      Pt         -0.00593226     0.00083536     0.00120874
    204      1      Pt          0.00317818     0.01994343     0.01554437
    205      1      Pt         -0.00702798    -0.01152341    -0.00054908
    206      1      Pt          0.02007333     0.02589472     0.00236051
    207      1      Pt         -0.00607680    -0.01144013    -0.01187452
    208      1      Pt          0.01243548     0.01163889     0.00516052
    209      1      Pt          0.00893752    -0.00092596     0.00349663
    210      1      Pt         -0.00164852    -0.01006731    -0.00148198
    211      1      Pt          0.01284611     0.01114398     0.00734831
    212      1      Pt         -0.00511488     0.00297153    -0.01468332
    213      1      Pt         -0.00695040     0.00061664     0.00149929
    214      1      Pt         -0.00665997     0.00537046    -0.00662254
    215      1      Pt         -0.00863263    -0.00491108    -0.00103035
    216      1      Pt         -0.00311322     0.00503569     0.01604297
 SUM OF ATOMIC FORCES           0.00000023     0.00006106    -0.00001791     0.00006363

 -------------------------------------------------------------------------------
 -                                                                             -
 -                                DBCSR STATISTICS                             -
 -                                                                             -
 -------------------------------------------------------------------------------
 COUNTER                                    TOTAL       BLAS       SMM       ACC
 flops    20 x    12 x    20            447897600       0.0%    100.0%      0.0%
 flops    20 x    32 x    20          58525286400       0.0%    100.0%      0.0%
 flops    20 x    20 x   204         248609088000       0.0%    100.0%      0.0%
 flops    20 x    20 x   224         272982528000       0.0%    100.0%      0.0%
 flops    20 x    20 x   192        1403910144000       0.0%    100.0%      0.0%
 flops inhomo. stacks                           0       0.0%      0.0%      0.0%
 flops total                         1.984475E+12       0.0%    100.0%      0.0%
 flops max/rank                     63.687885E+09       0.0%    100.0%      0.0%
 matmuls inhomo. stacks                         0       0.0%      0.0%      0.0%
 matmuls total                           14519520       0.0%    100.0%      0.0%
 number of processed stacks                 19072       0.0%    100.0%      0.0%
 average stack size                                     0.0     761.3       0.0
 marketing flops                     2.825226E+12
 -------------------------------------------------------------------------------
 # multiplications                             66
 max memory usage/rank               1.833214E+09
 # max total images/rank                        2
 # max 3D layers                                1
 # MPI messages exchanged                   27456
 MPI messages size (bytes):
  total size                        36.702028E+09
  min size                         829.440000E+03
  max size                           4.665600E+06
  average size                       1.336758E+06
 MPI breakdown and total messages size (bytes):
             size <=      128                   0                        0
       128 < size <=     8192                   0                        0
      8192 < size <=    32768                   0                        0
     32768 < size <=   131072                   0                        0
    131072 < size <=  4194304               27232              35656934400
   4194304 < size <= 16777216                 224               1045094400
  16777216 < size                               0                        0
 -------------------------------------------------------------------------------

 *** WARNING in dbcsr_mm.F:290 :: Using a non-square number of MPI ranks ***
 *** might lead to poor performance. Used ranks: 32 Suggested: 36 64     ***

 -------------------------------------------------------------------------------
 -                                                                             -
 -                      DBCSR MESSAGE PASSING PERFORMANCE                      -
 -                                                                             -
 -------------------------------------------------------------------------------
 ROUTINE             CALLS      AVE VOLUME [Bytes]
 MP_Bcast                6                     12.
 MP_Allreduce          485                      9.
 MP_Alltoall          1829                1275340.
 MP_ISend             2112                 578495.
 MP_IRecv             2112                 561506.
 -------------------------------------------------------------------------------

 -------------------------------------------------------------------------------
 -                                                                             -
 -                                DBM STATISTICS                               -
 -                                                                             -
 -------------------------------------------------------------------------------
    M  x    N  x    K                                          COUNT     PERCENT
 -------------------------------------------------------------------------------

 -------------------------------------------------------------------------------
 -                                                                             -
 -                                GRID STATISTICS                              -
 -                                                                             -
 -------------------------------------------------------------------------------
 LP    KERNEL             BACKEND                              COUNT     PERCENT
 4     collocate general  REF                               21827840      49.97%
 4     integrate general  REF                               21486780      49.19%
 5     integrate general  REF                                 341060       0.78%
 0     collocate general  REF                                  13824       0.03%
 0     integrate general  REF                                   6912       0.02%
 1     integrate general  REF                                   6912       0.02%
 -------------------------------------------------------------------------------

 MEMORY| Estimated peak process memory [MiB]                                2142

 -------------------------------------------------------------------------------
 ----                             MULTIGRID INFO                            ----
 -------------------------------------------------------------------------------
 count for grid        1:          17588          cutoff [a.u.]          200.00
 count for grid        2:         177826          cutoff [a.u.]           66.67
 count for grid        3:         109850          cutoff [a.u.]           22.22
 count for grid        4:         155433          cutoff [a.u.]            7.41
 total gridlevel count  :         460697

 -------------------------------------------------------------------------------
 -                                                                             -
 -                         MESSAGE PASSING PERFORMANCE                         -
 -                                                                             -
 -------------------------------------------------------------------------------

 ROUTINE             CALLS      AVE VOLUME [Bytes]
 MP_Group                4
 MP_Bcast             1770                 164528.
 MP_Allreduce         1616                   1565.
 MP_Sync                69
 MP_Alltoall          3125               49354181.
 MP_SendRecv           124                  14976.
 MP_ISendRecv         7936                 214800.
 MP_Wait             19240
 MP_comm_split           1
 MP_ISend            10136                 715003.
 MP_IRecv            10136                 715003.
 MP_Recv               192                1105920.
 MP_Write_All            3                4213860.
 -------------------------------------------------------------------------------


 -------------------------------------------------------------------------------
 -                                                                             -
 -                           R E F E R E N C E S                               -
 -                                                                             -
 -------------------------------------------------------------------------------
 
 CP2K version 2022.1, the CP2K developers group (2022).
 CP2K is freely available from https://www.cp2k.org/ .

 Kuehne,Thomas D.; Iannuzzi,Marcella; Del Ben,Mauro;
 Rybkin,Vladimir V.; Seewald,Patrick; Stein,Frederick; Laino,Teodoro;
 Khaliullin,Rustam Z.; Schuett,Ole; Schiffmann,Florian; Golze,Dorothea;
 Wilhelm,Jan; Chulkov,Sergey; Bani-Hashemian,Mohammad Hossein;
 Weber,Valery; Borstnik,Urban; Taillefumier,Mathieu;
 Jakobovits,Alice Shoshana; Lazzaro,Alfio; Pabst,Hans; Mueller,Tiziano;
 Schade,Robert; Guidon,Manuel; Andermatt,Samuel; Holmberg,Nico;
 Schenter,Gregory K.; Hehn,Anna; Bussy,Augustin; Belleflamme,Fabian;
 Tabacchi,Gloria; Gloess,Andreas; Lass,Michael; Bethune,Iain;
 Mundy,Christopher J.; Plessl,Christian; Watkins,Matt;
 VandeVondele,Joost; Krack,Matthias; Hutter,Juerg. 
 The Journal of Chemical Physics, 152 (19), (2020). 
 CP2K: An electronic structure and molecular dynamics software package -
 Quickstep: Efficient and accurate electronic structure calculations.
 https://doi.org/10.1063/5.0007045

 Goerigk, Lars; Hansen, Andreas; Bauer, Christoph; Ehrlich, Stephan;
 Najibi, Asim; Grimme, Stefan. , 19 (48), (2017). 
 A look at the density functional theory zoo with the advanced GMTKN55 database
 for general main group thermochemistry, kinetics and noncovalent interactions.
 https://doi.org/10.1039/C7CP04913G

 Bani-Hashemian, MH; Bruck, S; Luisier, M; VandeVondele, J. 
 JOURNAL OF CHEMICAL PHYSICS, 144 (4), 044113 (2016). 
 A generalized Poisson solver for first-principles device simulations.
 https://doi.org/10.1063/1.4940796

 Schuett, Ole; Messmer, Peter; Hutter, Juerg; VandeVondele, Joost. 
 Electronic Structure Calculations on Graphics Processing Units, John
 Wiley & Sons, Ltd, 173-190 (2016). 
 GPU-Accelerated Sparse Matrix-Matrix Multiplication for
 Linear Scaling Density Functional Theory.
 https://doi.org/10.1002/9781118670712.ch8

 Heinecke, A; Henry, G; Hutchinson, M; Pabst, H. 
 Proceedings of Intl. Supercomputing Conference, 981-991 (2016). 
 LIBXSMM: Accelerating Small Matrix Multiplications
 by Runtime Code Generation.
 https://doi.org/10.1109/SC.2016.83

 Borstnik, U; VandeVondele, J; Weber, V; Hutter, J. 
 PARALLEL COMPUTING, 40 (5-6), 47-58 (2014). 
 Sparse matrix multiplication: The distributed block-compressed sparse
 row library.
 https://doi.org/10.1016/j.parco.2014.03.012

 Hutter, J; Iannuzzi, M; Schiffmann, F; VandeVondele, J. 
 WIREs Comput Mol Sci., 4 (1), 15-25 (2014). 
 CP2K: atomistic simulations of condensed matter systems.
 https://doi.org/10.1002/wcms.1159

 Marek, A; Blum, V; Johanni, R; Havu, V; Lang, B; Auckenthaler, T;
 Heinecke, A; Bungartz, H; Lederer, H. 
 Journal of Physics: Condensed Matter, 26 (21), (2014). 
 The ELPA library: scalable parallel eigenvalue solutions for
 electronic structure
 theory and computational science.
 https://doi.org/10.1088/0953-8984/26/21/213201

 Grimme, S; Ehrlich, S; Goerigk, L. 
 JOURNAL OF COMPUTATIONAL CHEMISTRY, 32, 1456 (2011). 
 Effect of the damping function in dispersion corrected density functional theory.
 https://doi.org/10.1002/jcc.21759

 Grimme, S; Antony, J; Ehrlich, S; Krieg, H. 
 JOURNAL OF CHEMICAL PHYSICS, 132 (15), 154104 (2010). 
 A consistent and accurate ab initio parametrization of density
 functional dispersion correction (DFT-D) for the 94 elements H-Pu.
 https://doi.org/10.1063/1.3382344

 VandeVondele, J; Hutter, J. 
 JOURNAL OF CHEMICAL PHYSICS, 127 (11), 114105 (2007). 
 Gaussian basis sets for accurate calculations on molecular systems in
 gas and condensed phases.
 https://doi.org/10.1063/1.2770708

 Krack, M. 
 THEORETICAL CHEMISTRY ACCOUNTS, 114 (1-3), 145-152 (2005). 
 Pseudopotentials for H to Kr optimized for gradient-corrected
 exchange-correlation functionals.
 https://doi.org/10.1007/s00214-005-0655-y

 VandeVondele, J; Krack, M; Mohamed, F; Parrinello, M; Chassaing, T;
 Hutter, J. COMPUTER PHYSICS COMMUNICATIONS, 167 (2), 103-128 (2005). 
 QUICKSTEP: Fast and accurate density functional calculations using a
 mixed Gaussian and plane waves approach.
 https://doi.org/10.1016/j.cpc.2004.12.014

 Frigo, M; Johnson, SG. 
 PROCEEDINGS OF THE IEEE, 93 (2), 216-231 (2005). 
 The design and implementation of FFTW3.
 https://doi.org/10.1109/JPROC.2004.840301

 Hartwigsen, C; Goedecker, S; Hutter, J. 
 PHYSICAL REVIEW B, 58 (7), 3641-3662 (1998). 
 Relativistic separable dual-space Gaussian pseudopotentials from H to Rn.
 https://doi.org/10.1103/PhysRevB.58.3641

 Lippert, G; Hutter, J; Parrinello, M. 
 MOLECULAR PHYSICS, 92 (3), 477-487 (1997). 
 A hybrid Gaussian and plane wave density functional scheme.
 https://doi.org/10.1080/002689797170220

 Perdew, JP; Burke, K; Ernzerhof, M. 
 PHYSICAL REVIEW LETTERS, 77 (18), 3865-3868 (1996). 
 Generalized gradient approximation made simple.
 https://doi.org/10.1103/PhysRevLett.77.3865

 Goedecker, S; Teter, M; Hutter, J. 
 PHYSICAL REVIEW B, 54 (3), 1703-1710 (1996). 
 Separable dual-space Gaussian pseudopotentials.
 https://doi.org/10.1103/PhysRevB.54.1703


 -------------------------------------------------------------------------------
 -                                                                             -
 -                                T I M I N G                                  -
 -                                                                             -
 -------------------------------------------------------------------------------
 SUBROUTINE                       CALLS  ASD         SELF TIME        TOTAL TIME
                                MAXIMUM       AVERAGE  MAXIMUM  AVERAGE  MAXIMUM
 CP2K                                 1  1.0    0.019    0.044  828.600  828.602
 qs_forces                            1  2.0    0.001    0.001  828.187  828.189
 qs_energies                          1  3.0    0.000    0.000  813.977  813.980
 scf_env_do_scf                       1  4.0    0.000    0.000  803.386  803.479
 scf_env_do_scf_inner_loop           63  5.0    0.003    0.007  803.383  803.476
 rebuild_ks_matrix                   64  7.0    0.000    0.000  512.561  512.595
 qs_ks_build_kohn_sham_matrix        64  8.0    0.010    0.011  512.560  512.595
 qs_ks_update_qs_env                 63  6.0    0.000    0.001  502.842  502.876
 pw_transfer                       2982 12.1    0.227    0.300  287.508  290.199
 fft_wrap_pw1pw2                   2982 13.1    0.032    0.037  287.280  289.956
 fft_wrap_pw1pw2_200               2598 14.4   24.391   27.224  284.438  287.023
 pw_poisson_solve                    64  9.0    0.017    0.025  246.029  246.104
 implicit_poisson_solver_mixed_      64 10.0    6.607    7.192  231.312  231.515
 fft3d_ps                          2982 15.1  122.257  131.711  214.224  217.143
 qs_rho_update_rho_low               64  6.0    0.001    0.001  193.703  193.719
 calculate_rho_elec                  64  7.0    0.350    0.376  193.703  193.718
 sum_up_and_integrate                64  9.0    0.999    1.088  182.580  182.629
 integrate_v_rspace                  64 10.0    0.002    0.002  181.581  181.701
 grid_collocate_task_list            64  8.0   85.942  167.543   85.942  167.543
 derive_fft                         314 12.1    0.023    0.026  162.650  163.950
 grid_integrate_task_list            64 11.0   79.672  156.059   79.672  156.059
 rs_pw_transfer                     516 10.5    0.006    0.007  106.923  133.790
 density_rs2pw                       64  8.0    0.004    0.005  105.993  132.920
 apply_P_operator                   250 11.2    2.335    2.703  131.998  132.885
 mp_waitany                       10136 12.4   89.045  115.856   89.045  115.856
 rs_pw_transfer_RS2PW_200            66 10.0    3.705    4.396   87.540  114.398
 mp_alltoall_d11v                   912 10.3   78.406  103.343   78.406  103.343
 rs_gather_matrices                  64 11.0    0.235    0.288   77.210  102.125
 qs_scf_new_mos                      63  6.0    0.006    0.009   79.353   79.451
 qs_vxc_create                       64  9.0    0.002    0.003   75.551   76.422
 xc_vxc_pw_create                    64 10.0    1.714    2.163   75.549   76.420
 eigensolver                         63  7.0    0.006    0.009   71.542   71.606
 x_to_yz                           1868 16.3   40.777   46.851   62.940   65.771
 mp_alltoall_z22v                  2982 17.1   39.504   60.527   39.504   60.527
 xc_pw_derive                       384 12.0    0.007    0.008   50.965   53.711
 apply_poisson_operator_fft          64 11.0    0.001    0.001   48.675   48.927
 cp_fm_diag_elpa                     64  8.0    0.001    0.001   45.448   45.565
 cp_fm_diag_elpa_base                64  9.0   44.495   44.607   45.334   45.401
 yz_to_x                           1114 15.8   11.615   12.211   28.957   40.861
 xc_rho_set_and_dset_create          64 11.0    0.726    0.921   39.319   40.329
 apply_inv_laplace_operator_fft     159 11.6    1.319    1.424   35.282   36.349
 xc_pw_divergence                    64 11.0    0.004    0.004   33.512   35.375
 pw_scatter_p                      1868 15.3   31.481   34.958   31.481   34.958
 ps_implicit_compute_veps            64 11.0    0.769    0.908   33.761   34.490
 gspace_mixing                       62  6.0    0.339    0.363   30.057   30.057
 pw_derive                         1326 13.1   25.288   26.270   25.288   26.270
 cp_fm_triangular_multiply          189  8.0   25.327   25.538   25.327   25.538
 potential_pw2rs                     64 11.0    0.051    0.058   24.687   24.790
 ps_implicit_compute_error_fft       93 10.9    1.727    1.853   23.049   24.635
 broyden_mixing                      62  7.0   22.002   22.347   22.522   22.579
 pw_gather_p                       1114 14.8   16.863   17.664   16.863   17.664
 -------------------------------------------------------------------------------

 The number of warnings for this run is : 1
 
 -------------------------------------------------------------------------------
  **** **** ******  **  PROGRAM ENDED AT                 2023-12-03 06:19:36.591
 ***** ** ***  *** **   PROGRAM RAN ON                                     cu042
 **    ****   ******    PROGRAM RAN BY                                     jxzhu
 ***** **    ** ** **   PROGRAM PROCESS ID                                 46301
  **** **  *******  **  PROGRAM STOPPED IN /public/home/jxzhu/tmp_calc/04c0855f9
                                           8753fac23fde4df51ba20f3741a9e9a/calc/
                                           task.001.000013
