 DBCSR| CPU Multiplication driver                                           XSMM
 DBCSR| Multrec recursion limit                                              512
 DBCSR| Multiplication stack size                                           1000
 DBCSR| Maximum elements for images                                    UNLIMITED
 DBCSR| Multiplicative factor virtual images                                   1
 DBCSR| Use multiplication densification                                       T
 DBCSR| Multiplication size stacks                                             3
 DBCSR| Use memory pool for CPU allocation                                     F
 DBCSR| Number of 3D layers                                               SINGLE
 DBCSR| Use MPI memory allocation                                              F
 DBCSR| Use RMA algorithm                                                      F
 DBCSR| Use Communication thread                                               T
 DBCSR| Communication thread load                                             87
 DBCSR| MPI: My node id                                                        0
 DBCSR| MPI: Number of nodes                                                  64
 DBCSR| OMP: Current number of threads                                         1
 DBCSR| OMP: Max number of threads                                             1
 DBCSR| Split modifier for TAS multiplication algorithm                  1.0E+00


  **** **** ******  **  PROGRAM STARTED AT               2024-07-29 23:06:12.192
 ***** ** ***  *** **   PROGRAM STARTED ON                                 cu182
 **    ****   ******    PROGRAM STARTED BY                                 jxzhu
 ***** **    ** ** **   PROGRAM PROCESS ID                                 35647
  **** **  *******  **  PROGRAM STARTED IN /public/home/jxzhu/workspace/2022_lei
                                           den/08.Pt_111/01.elec_eps/06.alpha-z_
                                           test/mo/water_a

 CP2K| version string:                                       CP2K version 2022.1
 CP2K| source code revision number:                                  git:2caeb6f
 CP2K| cp2kflags: omp libint fftw3 libxc elpa parallel mpi3 scalapack cosma xsmm
 CP2K|             plumed2 spglib mkl sirius libvori libbqb
 CP2K| is freely available from                            https://www.cp2k.org/
 CP2K| Program compiled at                           Mon Jul 3 17:37:06 CST 2023
 CP2K| Program compiled on                                                 mu003
 CP2K| Program compiled for                                                local
 CP2K| Data directory path                             /public/home/jxzhu/basis/
 CP2K| Input file name                                                 input.inp
 
 GLOBAL| Force Environment number                                              1
 GLOBAL| Basis set file name                                        BASIS_MOLOPT
 GLOBAL| Potential file name                                      GTH_POTENTIALS
 GLOBAL| MM Potential file name                                     MM_POTENTIAL
 GLOBAL| Coordinate file name                                          coord.xyz
 GLOBAL| Method name                                                        CP2K
 GLOBAL| Project name                                                       cp2k
 GLOBAL| Run type                                                   ENERGY_FORCE
 GLOBAL| FFT library                                                       FFTW3
 GLOBAL| Diagonalization library                                            ELPA
 GLOBAL| Minimum number of eigenvectors for ELPA usage                        16
 GLOBAL| Orthonormality check for eigenvectors                          DISABLED
 GLOBAL| Matrix multiplication library                                     COSMA
 GLOBAL| All-to-all communication in single precision                          F
 GLOBAL| FFTs using library dependent lengths                                  F
 GLOBAL| Grid backend                                                       AUTO
 GLOBAL| Global print level                                               MEDIUM
 GLOBAL| MPI I/O enabled                                                       T
 GLOBAL| Total number of message passing processes                            64
 GLOBAL| Number of threads for this process                                    1
 GLOBAL| This output is from process                                           0
 GLOBAL| Stack size for threads created by OpenMP (OMP_STACKSIZE)        default
 GLOBAL| CPU model name                 Intel(R) Xeon(R) Gold 6338 CPU @ 2.00GHz
 GLOBAL| CPUID                                                              1003

 MEMORY| system memory details [Kb]
 MEMORY|                        rank 0           min           max       average
 MEMORY| MemTotal            263619172     263619172     263619172     263619172
 MEMORY| MemFree             244405924     244405924     244407784     244406224
 MEMORY| Buffers                  3320          3320          3320          3320
 MEMORY| Cached                1146568       1146568       1146568       1146568
 MEMORY| Slab                   542700        542700        542700        542700
 MEMORY| SReclaimable           189412        189412        189412        189412
 MEMORY| MemLikelyFree       245745224     245745224     245747084     245745524


 *** Fundamental physical constants (SI units) ***

 *** Literature: B. J. Mohr and B. N. Taylor,
 ***             CODATA recommended values of the fundamental physical
 ***             constants: 2006, Web Version 5.1
 ***             http://physics.nist.gov/constants

 Speed of light in vacuum [m/s]                             2.99792458000000E+08
 Magnetic constant or permeability of vacuum [N/A**2]       1.25663706143592E-06
 Electric constant or permittivity of vacuum [F/m]          8.85418781762039E-12
 Planck constant (h) [J*s]                                  6.62606896000000E-34
 Planck constant (h-bar) [J*s]                              1.05457162825177E-34
 Elementary charge [C]                                      1.60217648700000E-19
 Electron mass [kg]                                         9.10938215000000E-31
 Electron g factor [ ]                                     -2.00231930436220E+00
 Proton mass [kg]                                           1.67262163700000E-27
 Fine-structure constant                                    7.29735253760000E-03
 Rydberg constant [1/m]                                     1.09737315685270E+07
 Avogadro constant [1/mol]                                  6.02214179000000E+23
 Boltzmann constant [J/K]                                   1.38065040000000E-23
 Atomic mass unit [kg]                                      1.66053878200000E-27
 Bohr radius [m]                                            5.29177208590000E-11

 *** Conversion factors ***

 [u] -> [a.u.]                                              1.82288848426455E+03
 [Angstrom] -> [Bohr] = [a.u.]                              1.88972613288564E+00
 [a.u.] = [Bohr] -> [Angstrom]                              5.29177208590000E-01
 [a.u.] -> [s]                                              2.41888432650478E-17
 [a.u.] -> [fs]                                             2.41888432650478E-02
 [a.u.] -> [J]                                              4.35974393937059E-18
 [a.u.] -> [N]                                              8.23872205491840E-08
 [a.u.] -> [K]                                              3.15774647902944E+05
 [a.u.] -> [kJ/mol]                                         2.62549961709828E+03
 [a.u.] -> [kcal/mol]                                       6.27509468713739E+02
 [a.u.] -> [Pa]                                             2.94210107994716E+13
 [a.u.] -> [bar]                                            2.94210107994716E+08
 [a.u.] -> [atm]                                            2.90362800883016E+08
 [a.u.] -> [eV]                                             2.72113838565563E+01
 [a.u.] -> [Hz]                                             6.57968392072181E+15
 [a.u.] -> [1/cm] (wave numbers)                            2.19474631370540E+05
 [a.u./Bohr**2] -> [1/cm]                                   5.14048714338585E+03
 

 CELL_TOP| Volume [angstrom^3]:                                      4542.849048
 CELL_TOP| Vector a [angstrom    11.246     0.000     0.000   |a| =    11.245800
 CELL_TOP| Vector b [angstrom     0.000     9.739     0.000   |b| =     9.739200
 CELL_TOP| Vector c [angstrom     0.000     0.000    41.478   |c| =    41.477700
 CELL_TOP| Angle (b,c), alpha [degree]:                                90.000000
 CELL_TOP| Angle (a,c), beta  [degree]:                                90.000000
 CELL_TOP| Angle (a,b), gamma [degree]:                                90.000000
 CELL_TOP| Numerically orthorhombic:                                         YES
 
 GENERATE|  Preliminary Number of Bonds generated:                             0
 GENERATE|  Achieved consistency in connectivity generation.

 CELL| Volume [angstrom^3]:                                          4542.849048
 CELL| Vector a [angstrom]:      11.246     0.000     0.000   |a| =    11.245800
 CELL| Vector b [angstrom]:       0.000     9.739     0.000   |b| =     9.739200
 CELL| Vector c [angstrom]:       0.000     0.000    41.478   |c| =    41.477700
 CELL| Angle (b,c), alpha [degree]:                                    90.000000
 CELL| Angle (a,c), beta  [degree]:                                    90.000000
 CELL| Angle (a,b), gamma [degree]:                                    90.000000
 CELL| Numerically orthorhombic:                                             YES

 CELL_REF| Volume [angstrom^3]:                                      4542.849048
 CELL_REF| Vector a [angstrom    11.246     0.000     0.000   |a| =    11.245800
 CELL_REF| Vector b [angstrom     0.000     9.739     0.000   |b| =     9.739200
 CELL_REF| Vector c [angstrom     0.000     0.000    41.478   |c| =    41.477700
 CELL_REF| Angle (b,c), alpha [degree]:                                90.000000
 CELL_REF| Angle (a,c), beta  [degree]:                                90.000000
 CELL_REF| Angle (a,b), gamma [degree]:                                90.000000
 CELL_REF| Numerically orthorhombic:                                         YES

 *******************************************************************************
 *******************************************************************************
 **                                                                           **
 **     #####                         ##              ##                      **
 **    ##   ##            ##          ##              ##                      **
 **   ##     ##                       ##            ######                    **
 **   ##     ##  ##   ##  ##   #####  ##  ##   ####   ##    #####    #####    **
 **   ##     ##  ##   ##  ##  ##      ## ##   ##      ##   ##   ##  ##   ##   **
 **   ##  ## ##  ##   ##  ##  ##      ####     ###    ##   ######   ######    **
 **    ##  ###   ##   ##  ##  ##      ## ##      ##   ##   ##       ##        **
 **     #######   #####   ##   #####  ##  ##  ####    ##    #####   ##        **
 **           ##                                                    ##        **
 **                                                                           **
 **                                                ... make the atoms dance   **
 **                                                                           **
 **            Copyright (C) by CP2K developers group (2000-2022)             **
 **                      J. Chem. Phys. 152, 194103 (2020)                    **
 **                                                                           **
 *******************************************************************************

 DFT| Spin restricted Kohn-Sham (RKS) calculation                            RKS
 DFT| Multiplicity                                                             1
 DFT| Number of spin states                                                    1
 DFT| Charge                                                                   0
 DFT| Self-interaction correction (SIC)                                       NO
 DFT| Cutoffs: density                                              1.000000E-10
 DFT|          gradient                                             1.000000E-10
 DFT|          tau                                                  1.000000E-10
 DFT|          cutoff_smoothing_range                               0.000000E+00
 DFT| XC density smoothing                                                  NONE
 DFT| XC derivatives                                                          PW

 FUNCTIONAL| PBE:
 FUNCTIONAL| J.P.Perdew, K.Burke, M.Ernzerhof, Phys. Rev. Letter, vol. 77, n 18,
 FUNCTIONAL|  pp. 3865-3868, (1996){spin unpolarized}                           

 vdW POTENTIAL|                                                   Pair Potential
 vdW POTENTIAL|          DFT-D3 (Version 3.1)
 vdW POTENTIAL|          Potential Form: S. Grimme et al, JCP 132: 154104 (2010)
 vdW POTENTIAL|          Zero Damping
 vdW POTENTIAL|          Cutoff Radius [Bohr]:                             20.00
 vdW POTENTIAL|          s6 Scaling Factor:                               1.0000
 vdW POTENTIAL|          sr6 Scaling Factor:                              1.2170
 vdW POTENTIAL|          s8 Scaling Factor:                               0.7220
 vdW POTENTIAL|          Cutoff for CN calculation:                   0.1000E-05

 QS| Method:                                                                 GPW
 QS| Density plane wave grid type                        NON-SPHERICAL FULLSPACE
 QS| Number of grid levels:                                                    4
 QS| Density cutoff [a.u.]:                                                200.0
 QS| Multi grid cutoff [a.u.]: 1) grid level                               200.0
 QS|                           2) grid level                                66.7
 QS|                           3) grid level                                22.2
 QS|                           4) grid level                                 7.4
 QS| Grid level progression factor:                                          3.0
 QS| Relative density cutoff [a.u.]:                                        20.0
 QS| Interaction thresholds: eps_pgf_orb:                                3.2E-07
 QS|                         eps_filter_matrix:                          0.0E+00
 QS|                         eps_core_charge:                            1.0E-15
 QS|                         eps_rho_gspace:                             1.0E-13
 QS|                         eps_rho_rspace:                             1.0E-13
 QS|                         eps_gvg_rspace:                             3.2E-07
 QS|                         eps_ppl:                                    1.0E-02
 QS|                         eps_ppnl:                                   3.2E-09


 ATOMIC KIND INFORMATION

  1. Atomic kind: Pt                                    Number of atoms:      96

     Orbital Basis Set                      DZVP-A5-Q10-323-MOL-T1-DERIVED_SET-1

       Number of orbital shell sets:                                           1
       Number of orbital shells:                                               6
       Number of primitive Cartesian functions:                                5
       Number of Cartesian basis functions:                                   23
       Number of spherical basis functions:                                   20
       Norm type:                                                              2

       Normalised Cartesian orbitals:

                        Set   Shell   Orbital            Exponent    Coefficient

                          1       1    2s                2.521825       0.177473
                                                         1.453920      -0.063399
                                                         0.614053      -0.407089
                                                         0.232656       0.262254
                                                         0.074788       0.047371

                          1       2    3s                2.521825      -0.049056
                                                         1.453920       0.044904
                                                         0.614053      -0.009756
                                                         0.232656      -0.144709
                                                         0.074788       0.144085

                          1       3    3px               2.521825      -0.317572
                                                         1.453920       0.534826
                                                         0.614053      -0.489458
                                                         0.232656       0.245631
                                                         0.074788       0.018221
                          1       3    3py               2.521825      -0.317572
                                                         1.453920       0.534826
                                                         0.614053      -0.489458
                                                         0.232656       0.245631
                                                         0.074788       0.018221
                          1       3    3pz               2.521825      -0.317572
                                                         1.453920       0.534826
                                                         0.614053      -0.489458
                                                         0.232656       0.245631
                                                         0.074788       0.018221

                          1       4    4dx2              2.521825       3.008522
                                                         1.453920      -1.224251
                                                         0.614053       0.225691
                                                         0.232656       0.125144
                                                         0.074788      -0.015348
                          1       4    4dxy              2.521825       5.210912
                                                         1.453920      -2.120465
                                                         0.614053       0.390909
                                                         0.232656       0.216756
                                                         0.074788      -0.026584
                          1       4    4dxz              2.521825       5.210912
                                                         1.453920      -2.120465
                                                         0.614053       0.390909
                                                         0.232656       0.216756
                                                         0.074788      -0.026584
                          1       4    4dy2              2.521825       3.008522
                                                         1.453920      -1.224251
                                                         0.614053       0.225691
                                                         0.232656       0.125144
                                                         0.074788      -0.015348
                          1       4    4dyz              2.521825       5.210912
                                                         1.453920      -2.120465
                                                         0.614053       0.390909
                                                         0.232656       0.216756
                                                         0.074788      -0.026584
                          1       4    4dz2              2.521825       3.008522
                                                         1.453920      -1.224251
                                                         0.614053       0.225691
                                                         0.232656       0.125144
                                                         0.074788      -0.015348

                          1       5    5dx2              2.521825       0.698026
                                                         1.453920      -1.511486
                                                         0.614053      -0.335394
                                                         0.232656      -0.025564
                                                         0.074788      -0.002699
                          1       5    5dxy              2.521825       1.209017
                                                         1.453920      -2.617970
                                                         0.614053      -0.580920
                                                         0.232656      -0.044277
                                                         0.074788      -0.004674
                          1       5    5dxz              2.521825       1.209017
                                                         1.453920      -2.617970
                                                         0.614053      -0.580920
                                                         0.232656      -0.044277
                                                         0.074788      -0.004674
                          1       5    5dy2              2.521825       0.698026
                                                         1.453920      -1.511486
                                                         0.614053      -0.335394
                                                         0.232656      -0.025564
                                                         0.074788      -0.002699
                          1       5    5dyz              2.521825       1.209017
                                                         1.453920      -2.617970
                                                         0.614053      -0.580920
                                                         0.232656      -0.044277
                                                         0.074788      -0.004674
                          1       5    5dz2              2.521825       0.698026
                                                         1.453920      -1.511486
                                                         0.614053      -0.335394
                                                         0.232656      -0.025564
                                                         0.074788      -0.002699

                          1       6    6dx2              2.521825       0.831079
                                                         1.453920      -0.709226
                                                         0.614053      -0.137351
                                                         0.232656       0.068642
                                                         0.074788       0.011745
                          1       6    6dxy              2.521825       1.439472
                                                         1.453920      -1.228415
                                                         0.614053      -0.237899
                                                         0.232656       0.118891
                                                         0.074788       0.020343
                          1       6    6dxz              2.521825       1.439472
                                                         1.453920      -1.228415
                                                         0.614053      -0.237899
                                                         0.232656       0.118891
                                                         0.074788       0.020343
                          1       6    6dy2              2.521825       0.831079
                                                         1.453920      -0.709226
                                                         0.614053      -0.137351
                                                         0.232656       0.068642
                                                         0.074788       0.011745
                          1       6    6dyz              2.521825       1.439472
                                                         1.453920      -1.228415
                                                         0.614053      -0.237899
                                                         0.232656       0.118891
                                                         0.074788       0.020343
                          1       6    6dz2              2.521825       0.831079
                                                         1.453920      -0.709226
                                                         0.614053      -0.137351
                                                         0.232656       0.068642
                                                         0.074788       0.011745

       Atomic covalent radius [Angstrom]:                                  1.300

       Atomic van der Waals radius [Angstrom]:                             1.750

     GTH Potential information for                                   GTH-PBE-q10

       Description:                       Goedecker-Teter-Hutter pseudopotential
                                           Goedecker et al., PRB 54, 1703 (1996)
                                          Hartwigsen et al., PRB 58, 3641 (1998)
                                                      Krack, TCA 114, 145 (2005)

       Gaussian exponent of the core charge distribution:               1.317676
       Electronic configuration (s p d ...):                           1   0   9

       Parameters of the local part of the GTH pseudopotential:

                          rloc        C1          C2          C3          C4
                        0.616000   11.313635

       Parameters of the non-local part of the GTH pseudopotential:

                   l      r(l)      h(i,j,l)

                   0    0.550904    4.733491   -1.784594
                                   -1.784594    2.303901
                   1    0.674138    2.534798   -1.778066
                                   -1.778066    2.103836
                   2    0.457392   -7.264011    2.558665
                                    2.558665   -2.901253

  2. Atomic kind: O                                     Number of atoms:       1

     Orbital Basis Set                                        DZVP-MOLOPT-SR-GTH

       Number of orbital shell sets:                                           1
       Number of orbital shells:                                               5
       Number of primitive Cartesian functions:                                5
       Number of Cartesian basis functions:                                   14
       Number of spherical basis functions:                                   13
       Norm type:                                                              2

       Normalised Cartesian orbitals:

                        Set   Shell   Orbital            Exponent    Coefficient

                          1       1    2s               10.389228       0.396646
                                                         3.849621       0.208811
                                                         1.388401      -0.301641
                                                         0.496955      -0.274061
                                                         0.162492      -0.033677

                          1       2    3s               10.389228       0.303673
                                                         3.849621       0.240943
                                                         1.388401      -0.313066
                                                         0.496955      -0.043055
                                                         0.162492       0.213991

                          1       3    3px              10.389228      -1.530415
                                                         3.849621      -1.371928
                                                         1.388401      -0.761951
                                                         0.496955      -0.253695
                                                         0.162492      -0.035541
                          1       3    3py              10.389228      -1.530415
                                                         3.849621      -1.371928
                                                         1.388401      -0.761951
                                                         0.496955      -0.253695
                                                         0.162492      -0.035541
                          1       3    3pz              10.389228      -1.530415
                                                         3.849621      -1.371928
                                                         1.388401      -0.761951
                                                         0.496955      -0.253695
                                                         0.162492      -0.035541

                          1       4    4px              10.389228      -0.565392
                                                         3.849621      -0.038231
                                                         1.388401      -0.382373
                                                         0.496955       0.179070
                                                         0.162492       0.122714
                          1       4    4py              10.389228      -0.565392
                                                         3.849621      -0.038231
                                                         1.388401      -0.382373
                                                         0.496955       0.179070
                                                         0.162492       0.122714
                          1       4    4pz              10.389228      -0.565392
                                                         3.849621      -0.038231
                                                         1.388401      -0.382373
                                                         0.496955       0.179070
                                                         0.162492       0.122714

                          1       5    4dx2             10.389228       1.867377
                                                         3.849621       0.670994
                                                         1.388401       1.353441
                                                         0.496955       0.273538
                                                         0.162492       0.006620
                          1       5    4dxy             10.389228       3.234392
                                                         3.849621       1.162195
                                                         1.388401       2.344229
                                                         0.496955       0.473781
                                                         0.162492       0.011466
                          1       5    4dxz             10.389228       3.234392
                                                         3.849621       1.162195
                                                         1.388401       2.344229
                                                         0.496955       0.473781
                                                         0.162492       0.011466
                          1       5    4dy2             10.389228       1.867377
                                                         3.849621       0.670994
                                                         1.388401       1.353441
                                                         0.496955       0.273538
                                                         0.162492       0.006620
                          1       5    4dyz             10.389228       3.234392
                                                         3.849621       1.162195
                                                         1.388401       2.344229
                                                         0.496955       0.473781
                                                         0.162492       0.011466
                          1       5    4dz2             10.389228       1.867377
                                                         3.849621       0.670994
                                                         1.388401       1.353441
                                                         0.496955       0.273538
                                                         0.162492       0.006620

       Atomic covalent radius [Angstrom]:                                  0.730

       Atomic van der Waals radius [Angstrom]:                             1.520

     GTH Potential information for                                    GTH-PBE-q6

       Description:                       Goedecker-Teter-Hutter pseudopotential
                                           Goedecker et al., PRB 54, 1703 (1996)
                                          Hartwigsen et al., PRB 58, 3641 (1998)
                                                      Krack, TCA 114, 145 (2005)

       Gaussian exponent of the core charge distribution:               8.360253
       Electronic configuration (s p d ...):                               2   4

       Parameters of the local part of the GTH pseudopotential:

                          rloc        C1          C2          C3          C4
                        0.244554  -16.667215    2.487311

       Parameters of the non-local part of the GTH pseudopotential:

                   l      r(l)      h(i,j,l)

                   0    0.220956   18.337458
                   1    0.211332

  3. Atomic kind: H                                     Number of atoms:       2

     Orbital Basis Set                                        DZVP-MOLOPT-SR-GTH

       Number of orbital shell sets:                                           1
       Number of orbital shells:                                               3
       Number of primitive Cartesian functions:                                5
       Number of Cartesian basis functions:                                    5
       Number of spherical basis functions:                                    5
       Norm type:                                                              2

       Normalised Cartesian orbitals:

                        Set   Shell   Orbital            Exponent    Coefficient

                          1       1    2s               10.068468      -0.133023
                                                         2.680223      -0.177618
                                                         0.791502      -0.258419
                                                         0.239116      -0.107525
                                                         0.082193      -0.014019

                          1       2    3s               10.068468       0.344673
                                                         2.680223       1.819821
                                                         0.791502      -0.999069
                                                         0.239116       0.017430
                                                         0.082193       0.082660

                          1       3    3px              10.068468       0.155326
                                                         2.680223       0.367157
                                                         0.791502       0.311480
                                                         0.239116       0.080105
                                                         0.082193       0.033440
                          1       3    3py              10.068468       0.155326
                                                         2.680223       0.367157
                                                         0.791502       0.311480
                                                         0.239116       0.080105
                                                         0.082193       0.033440
                          1       3    3pz              10.068468       0.155326
                                                         2.680223       0.367157
                                                         0.791502       0.311480
                                                         0.239116       0.080105
                                                         0.082193       0.033440

       Atomic covalent radius [Angstrom]:                                  0.320

       Atomic van der Waals radius [Angstrom]:                             1.090

     GTH Potential information for                                    GTH-PBE-q1

       Description:                       Goedecker-Teter-Hutter pseudopotential
                                           Goedecker et al., PRB 54, 1703 (1996)
                                          Hartwigsen et al., PRB 58, 3641 (1998)
                                                      Krack, TCA 114, 145 (2005)

       Gaussian exponent of the core charge distribution:              12.500000
       Electronic configuration (s p d ...):                                   1

       Parameters of the local part of the GTH pseudopotential:

                          rloc        C1          C2          C3          C4
                        0.200000   -4.178900    0.724463


 MOLECULE KIND INFORMATION


 All atoms are their own molecule, skipping detailed information


 TOTAL NUMBERS AND MAXIMUM NUMBERS

  Total number of            - Atomic kinds:                                   3
                             - Atoms:                                         99
                             - Shell sets:                                    99
                             - Shells:                                       587
                             - Primitive Cartesian functions:                495
                             - Cartesian basis functions:                   2232
                             - Spherical basis functions:                   1943

  Maximum angular momentum of- Orbital basis functions:                        2
                             - Local part of the GTH pseudopotential:          2
                             - Non-local part of the GTH pseudopotential:      4


 MODULE QUICKSTEP:  ATOMIC COORDINATES IN angstrom

 Atom  Kind  Element       X           Y           Z          Z(eff)       Mass
    1   1 Pt  78       1.405728    0.811598   15.000000      10.0000    195.0840
    2   1 Pt  78       4.217185    0.811598   15.000000      10.0000    195.0840
    3   1 Pt  78       7.028641    0.811598   15.000000      10.0000    195.0840
    4   1 Pt  78       9.840098    0.811598   15.000000      10.0000    195.0840
    5   1 Pt  78       0.000000    3.246390   15.000000      10.0000    195.0840
    6   1 Pt  78       2.811457    3.246390   15.000000      10.0000    195.0840
    7   1 Pt  78       5.622913    3.246390   15.000000      10.0000    195.0840
    8   1 Pt  78       8.434370    3.246390   15.000000      10.0000    195.0840
    9   1 Pt  78       1.405728    5.681183   15.000000      10.0000    195.0840
   10   1 Pt  78       4.217185    5.681183   15.000000      10.0000    195.0840
   11   1 Pt  78       7.028641    5.681183   15.000000      10.0000    195.0840
   12   1 Pt  78       9.840098    5.681183   15.000000      10.0000    195.0840
   13   1 Pt  78       0.000000    8.115976   15.000000      10.0000    195.0840
   14   1 Pt  78       2.811457    8.115976   15.000000      10.0000    195.0840
   15   1 Pt  78       5.622913    8.115976   15.000000      10.0000    195.0840
   16   1 Pt  78       8.434370    8.115976   15.000000      10.0000    195.0840
   17   1 Pt  78       0.000000    1.623195   17.295545      10.0000    195.0840
   18   1 Pt  78       2.811457    1.623195   17.295545      10.0000    195.0840
   19   1 Pt  78       5.622913    1.623195   17.295545      10.0000    195.0840
   20   1 Pt  78       8.434370    1.623195   17.295545      10.0000    195.0840
   21   1 Pt  78       1.405728    4.057988   17.295545      10.0000    195.0840
   22   1 Pt  78       4.217185    4.057988   17.295545      10.0000    195.0840
   23   1 Pt  78       7.028641    4.057988   17.295545      10.0000    195.0840
   24   1 Pt  78       9.840098    4.057988   17.295545      10.0000    195.0840
   25   1 Pt  78       0.000000    6.492781   17.295545      10.0000    195.0840
   26   1 Pt  78       2.811457    6.492781   17.295545      10.0000    195.0840
   27   1 Pt  78       5.622913    6.492781   17.295545      10.0000    195.0840
   28   1 Pt  78       8.434370    6.492781   17.295545      10.0000    195.0840
   29   1 Pt  78       1.405728    8.927574   17.295545      10.0000    195.0840
   30   1 Pt  78       4.217185    8.927574   17.295545      10.0000    195.0840
   31   1 Pt  78       7.028641    8.927574   17.295545      10.0000    195.0840
   32   1 Pt  78       9.840098    8.927574   17.295545      10.0000    195.0840
   33   1 Pt  78       0.000000    0.000000   19.591089      10.0000    195.0840
   34   1 Pt  78       2.811457    0.000000   19.591089      10.0000    195.0840
   35   1 Pt  78       5.622913    0.000000   19.591089      10.0000    195.0840
   36   1 Pt  78       8.434370    0.000000   19.591089      10.0000    195.0840
   37   1 Pt  78       1.405728    2.434793   19.591089      10.0000    195.0840
   38   1 Pt  78       4.217185    2.434793   19.591089      10.0000    195.0840
   39   1 Pt  78       7.028641    2.434793   19.591089      10.0000    195.0840
   40   1 Pt  78       9.840098    2.434793   19.591089      10.0000    195.0840
   41   1 Pt  78       0.000000    4.869586   19.591089      10.0000    195.0840
   42   1 Pt  78       2.811457    4.869586   19.591089      10.0000    195.0840
   43   1 Pt  78       5.622913    4.869586   19.591089      10.0000    195.0840
   44   1 Pt  78       8.434370    4.869586   19.591089      10.0000    195.0840
   45   1 Pt  78       1.405728    7.304378   19.591089      10.0000    195.0840
   46   1 Pt  78       4.217185    7.304378   19.591089      10.0000    195.0840
   47   1 Pt  78       7.028641    7.304378   19.591089      10.0000    195.0840
   48   1 Pt  78       9.840098    7.304378   19.591089      10.0000    195.0840
   49   1 Pt  78       1.405728    0.811598   21.886634      10.0000    195.0840
   50   1 Pt  78       4.217185    0.811598   21.886634      10.0000    195.0840
   51   1 Pt  78       7.028641    0.811598   21.886634      10.0000    195.0840
   52   1 Pt  78       9.840098    0.811598   21.886634      10.0000    195.0840
   53   1 Pt  78       0.000000    3.246390   21.886634      10.0000    195.0840
   54   1 Pt  78       2.811457    3.246390   21.886634      10.0000    195.0840
   55   1 Pt  78       5.622913    3.246390   21.886634      10.0000    195.0840
   56   1 Pt  78       8.434370    3.246390   21.886634      10.0000    195.0840
   57   1 Pt  78       1.405728    5.681183   21.886634      10.0000    195.0840
   58   1 Pt  78       4.217185    5.681183   21.886634      10.0000    195.0840
   59   1 Pt  78       7.028641    5.681183   21.886634      10.0000    195.0840
   60   1 Pt  78       9.840098    5.681183   21.886634      10.0000    195.0840
   61   1 Pt  78       0.000000    8.115976   21.886634      10.0000    195.0840
   62   1 Pt  78       2.811457    8.115976   21.886634      10.0000    195.0840
   63   1 Pt  78       5.622913    8.115976   21.886634      10.0000    195.0840
   64   1 Pt  78       8.434370    8.115976   21.886634      10.0000    195.0840
   65   1 Pt  78       0.000000    1.623195   24.182179      10.0000    195.0840
   66   1 Pt  78       2.811457    1.623195   24.182179      10.0000    195.0840
   67   1 Pt  78       5.622913    1.623195   24.182179      10.0000    195.0840
   68   1 Pt  78       8.434370    1.623195   24.182179      10.0000    195.0840
   69   1 Pt  78       1.405728    4.057988   24.182179      10.0000    195.0840
   70   1 Pt  78       4.217185    4.057988   24.182179      10.0000    195.0840
   71   1 Pt  78       7.028641    4.057988   24.182179      10.0000    195.0840
   72   1 Pt  78       9.840098    4.057988   24.182179      10.0000    195.0840
   73   1 Pt  78       0.000000    6.492781   24.182179      10.0000    195.0840
   74   1 Pt  78       2.811457    6.492781   24.182179      10.0000    195.0840
   75   1 Pt  78       5.622913    6.492781   24.182179      10.0000    195.0840
   76   1 Pt  78       8.434370    6.492781   24.182179      10.0000    195.0840
   77   1 Pt  78       1.405728    8.927574   24.182179      10.0000    195.0840
   78   1 Pt  78       4.217185    8.927574   24.182179      10.0000    195.0840
   79   1 Pt  78       7.028641    8.927574   24.182179      10.0000    195.0840
   80   1 Pt  78       9.840098    8.927574   24.182179      10.0000    195.0840
   81   1 Pt  78       0.000000    0.000000   26.477723      10.0000    195.0840
   82   1 Pt  78       2.811457    0.000000   26.477723      10.0000    195.0840
   83   1 Pt  78       5.622913    0.000000   26.477723      10.0000    195.0840
   84   1 Pt  78       8.434370    0.000000   26.477723      10.0000    195.0840
   85   1 Pt  78       1.405728    2.434793   26.477723      10.0000    195.0840
   86   1 Pt  78       4.217185    2.434793   26.477723      10.0000    195.0840
   87   1 Pt  78       7.028641    2.434793   26.477723      10.0000    195.0840
   88   1 Pt  78       9.840098    2.434793   26.477723      10.0000    195.0840
   89   1 Pt  78       0.000000    4.869586   26.477723      10.0000    195.0840
   90   1 Pt  78       2.811457    4.869586   26.477723      10.0000    195.0840
   91   1 Pt  78       5.622913    4.869586   26.477723      10.0000    195.0840
   92   1 Pt  78       8.434370    4.869586   26.477723      10.0000    195.0840
   93   1 Pt  78       1.405728    7.304378   26.477723      10.0000    195.0840
   94   1 Pt  78       4.217185    7.304378   26.477723      10.0000    195.0840
   95   1 Pt  78       7.028641    7.304378   26.477723      10.0000    195.0840
   96   1 Pt  78       9.840098    7.304378   26.477723      10.0000    195.0840
   97   2 O    8       5.622913    4.869586   28.777723       6.0000     15.9994
   98   3 H    1       5.062566    5.632825   28.981673       1.0000      1.0079
   99   3 H    1       5.062566    4.106347   28.981673       1.0000      1.0079




 SCF PARAMETERS         Density guess:                                   RESTART
                        --------------------------------------------------------
                        max_scf:                                             500
                        max_scf_history:                                       0
                        max_diis:                                              4
                        --------------------------------------------------------
                        eps_scf:                                        1.00E-06
                        eps_scf_history:                                0.00E+00
                        eps_diis:                                       1.00E-01
                        eps_eigval:                                     1.00E-05
                        --------------------------------------------------------
                        level_shift [a.u.]:                             0.000000
                        added MOs                                       500    0
                        --------------------------------------------------------
                        Mixing method:                            BROYDEN_MIXING
                                                charge density mixing in g-space
                        --------------------------------------------------------
                        Smear method:                                FERMI_DIRAC
                        Electronic temperature [K]:                        300.0
                        Electronic temperature [a.u.]:                  9.50E-04
                        Accuracy threshold:                             1.00E-10
                        --------------------------------------------------------
                        No outer SCF

 PW_GRID| Information for grid number                                          1
 PW_GRID| Grid distributed over                                    64 processors
 PW_GRID| Real space group dimensions                                    64    1
 PW_GRID| the grid is blocked:                                                NO
 PW_GRID| Cutoff [a.u.]                                                    200.0
 PW_GRID| spherical cutoff:                                                   NO
 PW_GRID|   Bounds   1            -67      67                Points:         135
 PW_GRID|   Bounds   2            -60      59                Points:         120
 PW_GRID|   Bounds   3           -250     249                Points:         500
 PW_GRID| Volume element (a.u.^3)  0.3785E-02     Volume (a.u.^3)     30656.6653
 PW_GRID| Grid span                                                    FULLSPACE
 PW_GRID|   Distribution                         Average         Max         Min
 PW_GRID|   G-Vectors                           126562.5      126630      126495
 PW_GRID|   G-Rays                                 937.5         938         937
 PW_GRID|   Real Space Points                   126562.5      180000      120000

 PW_GRID| Information for grid number                                          2
 PW_GRID| Number of the reference grid                                         1
 PW_GRID| Grid distributed over                                    64 processors
 PW_GRID| Real space group dimensions                                    64    1
 PW_GRID| the grid is blocked:                                                NO
 PW_GRID| Cutoff [a.u.]                                                     66.7
 PW_GRID| spherical cutoff:                                                   NO
 PW_GRID|   Bounds   1            -40      39                Points:          80
 PW_GRID|   Bounds   2            -36      35                Points:          72
 PW_GRID|   Bounds   3           -150     149                Points:         300
 PW_GRID| Volume element (a.u.^3)  0.1774E-01     Volume (a.u.^3)     30656.6653
 PW_GRID| Grid span                                                    FULLSPACE
 PW_GRID|   Distribution                         Average         Max         Min
 PW_GRID|   G-Vectors                            27000.0       27360       26560
 PW_GRID|   G-Rays                                 337.5         342         332
 PW_GRID|   Real Space Points                    27000.0       43200       21600

 PW_GRID| Information for grid number                                          3
 PW_GRID| Number of the reference grid                                         1
 PW_GRID| Grid distributed over                                    64 processors
 PW_GRID| Real space group dimensions                                     8    8
 PW_GRID| the grid is blocked:                                                NO
 PW_GRID| Cutoff [a.u.]                                                     22.2
 PW_GRID| spherical cutoff:                                                   NO
 PW_GRID|   Bounds   1            -22      22                Points:          45
 PW_GRID|   Bounds   2            -20      19                Points:          40
 PW_GRID|   Bounds   3            -90      89                Points:         180
 PW_GRID| Volume element (a.u.^3)  0.9462E-01     Volume (a.u.^3)     30656.6653
 PW_GRID| Grid span                                                    FULLSPACE
 PW_GRID|   Distribution                         Average         Max         Min
 PW_GRID|   G-Vectors                             5062.5        5490        4635
 PW_GRID|   G-Rays                                 112.5         122         103
 PW_GRID|   Real Space Points                     5062.5        5400        4500

 PW_GRID| Information for grid number                                          4
 PW_GRID| Number of the reference grid                                         1
 PW_GRID| Grid distributed over                                    64 processors
 PW_GRID| Real space group dimensions                                     8    8
 PW_GRID| the grid is blocked:                                                NO
 PW_GRID| Cutoff [a.u.]                                                      7.4
 PW_GRID| spherical cutoff:                                                   NO
 PW_GRID|   Bounds   1            -13      13                Points:          27
 PW_GRID|   Bounds   2            -12      11                Points:          24
 PW_GRID|   Bounds   3            -50      49                Points:         100
 PW_GRID| Volume element (a.u.^3)  0.4731         Volume (a.u.^3)     30656.6653
 PW_GRID| Grid span                                                    FULLSPACE
 PW_GRID|   Distribution                         Average         Max         Min
 PW_GRID|   G-Vectors                             1012.5        1269         675
 PW_GRID|   G-Rays                                  37.5          47          25
 PW_GRID|   Real Space Points                     1012.5        1200         900

 POISSON| Solver                                                        PERIODIC
 POISSON| Periodicity                                                        XYZ

 RS_GRID| Information for grid number                                          1
 RS_GRID|   Bounds   1            -67      67                Points:         135
 RS_GRID|   Bounds   2            -60      59                Points:         120
 RS_GRID|   Bounds   3           -250     249                Points:         500
 RS_GRID| Real space distribution over                                 64 groups
 RS_GRID| Real space distribution along direction                              3
 RS_GRID| Border size                                                         34
 RS_GRID|   Distribution                         Average         Max         Min
 RS_GRID|   Planes                                  75.8          76          75

 RS_GRID| Information for grid number                                          2
 RS_GRID|   Bounds   1            -40      39                Points:          80
 RS_GRID|   Bounds   2            -36      35                Points:          72
 RS_GRID|   Bounds   3           -150     149                Points:         300
 RS_GRID| Real space distribution over                                 64 groups
 RS_GRID| Real space distribution along direction                              3
 RS_GRID| Border size                                                         24
 RS_GRID|   Distribution                         Average         Max         Min
 RS_GRID|   Planes                                  52.7          53          52

 RS_GRID| Information for grid number                                          3
 RS_GRID|   Bounds   1            -22      22                Points:          45
 RS_GRID|   Bounds   2            -20      19                Points:          40
 RS_GRID|   Bounds   3            -90      89                Points:         180
 RS_GRID| Real space fully replicated
 RS_GRID| Group size                                                           1

 RS_GRID| Information for grid number                                          4
 RS_GRID|   Bounds   1            -13      13                Points:          27
 RS_GRID|   Bounds   2            -12      11                Points:          24
 RS_GRID|   Bounds   3            -50      49                Points:         100
 RS_GRID| Real space fully replicated
 RS_GRID| Group size                                                           1

 Number of electrons:                                                        968
 Number of occupied orbitals:                                                484
 Number of molecular orbitals:                                               984

 Number of orbital functions:                                               1943
 Number of independent orbital functions:                                   1943

 Extrapolation method: initial_guess


 SCF WAVEFUNCTION OPTIMIZATION

  Step     Update method      Time    Convergence         Total energy    Change
  ------------------------------------------------------------------------------
     1 NoMix/Diag. 0.30E+00    0.8     0.00002579     -2538.0355830119 -2.54E+03
     2 Broy./Diag. 0.30E+00    1.1     0.00032431     -2538.0683628618 -3.28E-02
     3 Broy./Diag. 0.30E+00    1.1     0.00031099     -2538.0673801275  9.83E-04
     4 Broy./Diag. 0.30E+00    1.1     0.00006822     -2538.0676587795 -2.79E-04
     5 Broy./Diag. 0.30E+00    1.1     0.00004072     -2538.0690507974 -1.39E-03
     6 Broy./Diag. 0.30E+00    1.1     0.00000549     -2538.0680617576  9.89E-04
     7 Broy./Diag. 0.30E+00    1.1     0.00000275     -2538.0680840287 -2.23E-05
     8 Broy./Diag. 0.30E+00    1.1     0.00000065     -2538.0680792862  4.74E-06

  *** SCF run converged in     8 steps ***


  Electronic density on regular grids:       -967.9999999999        0.0000000001
  Core density on regular grids:              967.9999999998       -0.0000000002
  Total charge density on r-space grids:       -0.0000000001
  Total charge density g-space grids:          -0.0000000001

  Overlap energy of the core charge distribution:               0.00001067565657
  Self energy of the core charge distribution:              -4440.62962420003350
  Core Hamiltonian energy:                                   1439.78694115893154
  Hartree energy:                                             901.61694351444226
  Exchange-correlation energy:                               -436.69000368669839
  Dispersion energy:                                           -2.11984257984403
  Electronic entropic energy:                                  -0.03250417191403
  Fermi energy:                                                 0.00984919158310

  Total energy:                                             -2538.06807928617354

 !-----------------------------------------------------------------------------!
                     Mulliken Population Analysis

 #  Atom  Element  Kind  Atomic population                           Net charge
       1     Pt       1         10.055184                             -0.055184
       2     Pt       1         10.054398                             -0.054398
       3     Pt       1         10.054151                             -0.054151
       4     Pt       1         10.054729                             -0.054729
       5     Pt       1         10.054505                             -0.054505
       6     Pt       1         10.054560                             -0.054560
       7     Pt       1         10.054737                             -0.054737
       8     Pt       1         10.054995                             -0.054995
       9     Pt       1         10.054568                             -0.054568
      10     Pt       1         10.055816                             -0.055816
      11     Pt       1         10.055666                             -0.055666
      12     Pt       1         10.054866                             -0.054866
      13     Pt       1         10.054412                             -0.054412
      14     Pt       1         10.055269                             -0.055269
      15     Pt       1         10.053864                             -0.053864
      16     Pt       1         10.055208                             -0.055208
      17     Pt       1          9.972426                              0.027574
      18     Pt       1          9.971967                              0.028033
      19     Pt       1          9.972326                              0.027674
      20     Pt       1          9.971782                              0.028218
      21     Pt       1          9.972409                              0.027591
      22     Pt       1          9.972911                              0.027089
      23     Pt       1          9.972866                              0.027134
      24     Pt       1          9.972270                              0.027730
      25     Pt       1          9.972229                              0.027771
      26     Pt       1          9.973105                              0.026895
      27     Pt       1          9.972967                              0.027033
      28     Pt       1          9.972997                              0.027003
      29     Pt       1          9.972867                              0.027133
      30     Pt       1          9.973183                              0.026817
      31     Pt       1          9.972993                              0.027007
      32     Pt       1          9.972914                              0.027086
      33     Pt       1          9.972736                              0.027264
      34     Pt       1          9.973533                              0.026467
      35     Pt       1          9.974840                              0.025160
      36     Pt       1          9.973872                              0.026128
      37     Pt       1          9.976153                              0.023847
      38     Pt       1          9.973774                              0.026226
      39     Pt       1          9.973973                              0.026027
      40     Pt       1          9.976239                              0.023761
      41     Pt       1          9.974585                              0.025415
      42     Pt       1          9.973859                              0.026141
      43     Pt       1          9.974693                              0.025307
      44     Pt       1          9.973563                              0.026437
      45     Pt       1          9.973462                              0.026538
      46     Pt       1          9.973320                              0.026680
      47     Pt       1          9.973586                              0.026414
      48     Pt       1          9.973533                              0.026467
      49     Pt       1          9.973699                              0.026301
      50     Pt       1          9.972521                              0.027479
      51     Pt       1          9.972723                              0.027277
      52     Pt       1          9.973474                              0.026526
      53     Pt       1          9.972110                              0.027890
      54     Pt       1          9.975947                              0.024053
      55     Pt       1          9.973463                              0.026537
      56     Pt       1          9.975788                              0.024212
      57     Pt       1          9.973281                              0.026719
      58     Pt       1          9.973693                              0.026307
      59     Pt       1          9.973757                              0.026243
      60     Pt       1          9.973385                              0.026615
      61     Pt       1          9.974579                              0.025421
      62     Pt       1          9.973783                              0.026217
      63     Pt       1          9.976597                              0.023403
      64     Pt       1          9.973474                              0.026526
      65     Pt       1          9.972355                              0.027645
      66     Pt       1          9.972572                              0.027428
      67     Pt       1          9.974515                              0.025485
      68     Pt       1          9.973325                              0.026675
      69     Pt       1          9.972723                              0.027277
      70     Pt       1          9.975013                              0.024987
      71     Pt       1          9.971035                              0.028965
      72     Pt       1          9.973430                              0.026570
      73     Pt       1          9.972472                              0.027528
      74     Pt       1          9.975106                              0.024894
      75     Pt       1          9.973666                              0.026334
      76     Pt       1          9.974287                              0.025713
      77     Pt       1          9.972999                              0.027001
      78     Pt       1          9.971871                              0.028129
      79     Pt       1          9.972983                              0.027017
      80     Pt       1          9.972940                              0.027060
      81     Pt       1         10.059898                             -0.059898
      82     Pt       1         10.058940                             -0.058940
      83     Pt       1         10.065877                             -0.065877
      84     Pt       1         10.056111                             -0.056111
      85     Pt       1         10.062666                             -0.062666
      86     Pt       1         10.095273                             -0.095273
      87     Pt       1         10.057520                             -0.057520
      88     Pt       1         10.059912                             -0.059912
      89     Pt       1         10.057606                             -0.057606
      90     Pt       1         10.075761                             -0.075761
      91     Pt       1         10.000291                             -0.000291
      92     Pt       1         10.042710                             -0.042710
      93     Pt       1         10.062424                             -0.062424
      94     Pt       1         10.096390                             -0.096390
      95     Pt       1         10.058939                             -0.058939
      96     Pt       1         10.059697                             -0.059697
      97     O        2          6.164627                             -0.164627
      98     H        3          0.843424                              0.156576
      99     H        3          0.843505                              0.156495
 # Total charge                            968.000000                  0.000000

 !-----------------------------------------------------------------------------!

 !-----------------------------------------------------------------------------!
                           Hirshfeld Charges

  #Atom  Element  Kind  Ref Charge     Population                    Net charge
      1       Pt     1      10.000         10.015                        -0.015
      2       Pt     1      10.000         10.015                        -0.015
      3       Pt     1      10.000         10.015                        -0.015
      4       Pt     1      10.000         10.015                        -0.015
      5       Pt     1      10.000         10.015                        -0.015
      6       Pt     1      10.000         10.015                        -0.015
      7       Pt     1      10.000         10.016                        -0.016
      8       Pt     1      10.000         10.015                        -0.015
      9       Pt     1      10.000         10.015                        -0.015
     10       Pt     1      10.000         10.018                        -0.018
     11       Pt     1      10.000         10.017                        -0.017
     12       Pt     1      10.000         10.015                        -0.015
     13       Pt     1      10.000         10.016                        -0.016
     14       Pt     1      10.000         10.016                        -0.016
     15       Pt     1      10.000         10.015                        -0.015
     16       Pt     1      10.000         10.016                        -0.016
     17       Pt     1      10.000          9.987                         0.013
     18       Pt     1      10.000          9.987                         0.013
     19       Pt     1      10.000          9.987                         0.013
     20       Pt     1      10.000          9.987                         0.013
     21       Pt     1      10.000          9.988                         0.012
     22       Pt     1      10.000          9.987                         0.013
     23       Pt     1      10.000          9.987                         0.013
     24       Pt     1      10.000          9.988                         0.012
     25       Pt     1      10.000          9.987                         0.013
     26       Pt     1      10.000          9.987                         0.013
     27       Pt     1      10.000          9.987                         0.013
     28       Pt     1      10.000          9.987                         0.013
     29       Pt     1      10.000          9.987                         0.013
     30       Pt     1      10.000          9.988                         0.012
     31       Pt     1      10.000          9.988                         0.012
     32       Pt     1      10.000          9.987                         0.013
     33       Pt     1      10.000          9.998                         0.002
     34       Pt     1      10.000          9.998                         0.002
     35       Pt     1      10.000          9.998                         0.002
     36       Pt     1      10.000          9.998                         0.002
     37       Pt     1      10.000          9.999                         0.001
     38       Pt     1      10.000          9.998                         0.002
     39       Pt     1      10.000          9.998                         0.002
     40       Pt     1      10.000          9.999                         0.001
     41       Pt     1      10.000          9.998                         0.002
     42       Pt     1      10.000          9.998                         0.002
     43       Pt     1      10.000          9.999                         0.001
     44       Pt     1      10.000          9.998                         0.002
     45       Pt     1      10.000          9.998                         0.002
     46       Pt     1      10.000          9.998                         0.002
     47       Pt     1      10.000          9.998                         0.002
     48       Pt     1      10.000          9.998                         0.002
     49       Pt     1      10.000          9.998                         0.002
     50       Pt     1      10.000          9.997                         0.003
     51       Pt     1      10.000          9.998                         0.002
     52       Pt     1      10.000          9.998                         0.002
     53       Pt     1      10.000          9.998                         0.002
     54       Pt     1      10.000          9.999                         0.001
     55       Pt     1      10.000          9.997                         0.003
     56       Pt     1      10.000          9.999                         0.001
     57       Pt     1      10.000          9.998                         0.002
     58       Pt     1      10.000          9.997                         0.003
     59       Pt     1      10.000          9.998                         0.002
     60       Pt     1      10.000          9.998                         0.002
     61       Pt     1      10.000          9.998                         0.002
     62       Pt     1      10.000          9.998                         0.002
     63       Pt     1      10.000          9.999                         0.001
     64       Pt     1      10.000          9.998                         0.002
     65       Pt     1      10.000          9.987                         0.013
     66       Pt     1      10.000          9.988                         0.012
     67       Pt     1      10.000          9.988                         0.012
     68       Pt     1      10.000          9.988                         0.012
     69       Pt     1      10.000          9.988                         0.012
     70       Pt     1      10.000          9.990                         0.010
     71       Pt     1      10.000          9.990                         0.010
     72       Pt     1      10.000          9.987                         0.013
     73       Pt     1      10.000          9.987                         0.013
     74       Pt     1      10.000          9.988                         0.012
     75       Pt     1      10.000          9.990                         0.010
     76       Pt     1      10.000          9.987                         0.013
     77       Pt     1      10.000          9.988                         0.012
     78       Pt     1      10.000          9.988                         0.012
     79       Pt     1      10.000          9.987                         0.013
     80       Pt     1      10.000          9.988                         0.012
     81       Pt     1      10.000         10.019                        -0.019
     82       Pt     1      10.000         10.023                        -0.023
     83       Pt     1      10.000         10.026                        -0.026
     84       Pt     1      10.000         10.019                        -0.019
     85       Pt     1      10.000         10.024                        -0.024
     86       Pt     1      10.000         10.098                        -0.098
     87       Pt     1      10.000         10.044                        -0.044
     88       Pt     1      10.000         10.019                        -0.019
     89       Pt     1      10.000         10.022                        -0.022
     90       Pt     1      10.000         10.087                        -0.087
     91       Pt     1      10.000         10.160                        -0.160
     92       Pt     1      10.000         10.027                        -0.027
     93       Pt     1      10.000         10.024                        -0.024
     94       Pt     1      10.000         10.098                        -0.098
     95       Pt     1      10.000         10.045                        -0.045
     96       Pt     1      10.000         10.019                        -0.019
     97       O      2       6.000          6.612                        -0.612
     98       H      3       1.000          0.423                         0.577
     99       H      3       1.000          0.423                         0.577

  Total Charge                                                            0.000
 !-----------------------------------------------------------------------------!

 LOCALIZE| The spread relative to a set of orbitals is computed
 LOCALIZE| Orbitals to be localized: All orbitals
 LOCALIZE| If fractional occupation, fully occupied MOs are those 
           within occupation tolerance of       2.00000000
 LOCALIZE| Spread defined by the Berry phase operator 
 LOCALIZE| Optimal unitary transformation generated by Jacobi algorithm

 LOCALIZATION|    The orbitals to be localized are read from localization restart file.

 LOCALIZATION| Computing localization properties for OCCUPIED ORBITALS. Spin:  1
    Spread Functional     sum_in -w_i ln(|z_in|^2)    sum_in w_i(1-|z_in|^2)
                          sum_in w_i(1-|z_in|^2)/n
    Initial Spread (Berry) :              5392.8698284243     4435.3430424199
                                             9.1639319058
    Localization by iterative distributed Jacobi rotation
                      Iteration            Functional         Tolerance   Time 
    Localization  for spin   1 converged in      1 iterations
    Spread Functional     sum_in -w_i ln(|z_in|^2)    sum_in w_i(1-|z_in|^2)
                          sum_in w_i(1-|z_in|^2)/n
    Total Spread (Berry) :                5392.8690306700     4435.3430423795
                                             9.1639319057

 LOCALIZATION| Write restart file for the localized MOS : cp2k-LOC_HOMO-1_0.wfn


 ENERGY| Total FORCE_EVAL ( QS ) energy [a.u.]:            -2538.068087183491116

 ATOMIC FORCES in [a.u.]

 # Atom   Kind   Element          X              Y              Z
      1      1      Pt          0.00027725    -0.00135629    -0.01299647
      2      1      Pt          0.00003596    -0.00134727    -0.01264268
      3      1      Pt         -0.00010890    -0.00136500    -0.01244399
      4      1      Pt         -0.00016581    -0.00137331    -0.01291821
      5      1      Pt          0.00002301    -0.00173628    -0.01264018
      6      1      Pt         -0.00009766    -0.00118578    -0.01286463
      7      1      Pt         -0.00005141    -0.00137550    -0.01287061
      8      1      Pt          0.00010516    -0.00109366    -0.01295534
      9      1      Pt          0.00058246    -0.00109226    -0.01271194
     10      1      Pt         -0.00008051    -0.00110081    -0.01270041
     11      1      Pt         -0.00006682    -0.00124007    -0.01275535
     12      1      Pt         -0.00053177    -0.00103426    -0.01276760
     13      1      Pt          0.00006696    -0.00137969    -0.01241851
     14      1      Pt         -0.00032545    -0.00126243    -0.01304718
     15      1      Pt         -0.00013288    -0.00143467    -0.01273495
     16      1      Pt          0.00033168    -0.00129239    -0.01301964
     17      1      Pt         -0.00002824     0.00007056     0.00922071
     18      1      Pt         -0.00012007    -0.00033435     0.01009558
     19      1      Pt         -0.00000189    -0.00056328     0.00964833
     20      1      Pt          0.00011166    -0.00028455     0.01011932
     21      1      Pt          0.00004745    -0.00063098     0.00992566
     22      1      Pt          0.00023715    -0.00046440     0.00971803
     23      1      Pt         -0.00010826    -0.00050500     0.00967029
     24      1      Pt         -0.00007240    -0.00073430     0.01001789
     25      1      Pt         -0.00005597    -0.00070554     0.00995385
     26      1      Pt          0.00040885    -0.00045600     0.00966053
     27      1      Pt          0.00011530    -0.00058296     0.01003606
     28      1      Pt         -0.00032758    -0.00043683     0.00968390
     29      1      Pt          0.00014876    -0.00014779     0.00982957
     30      1      Pt          0.00005925    -0.00048404     0.00978911
     31      1      Pt          0.00002771    -0.00054718     0.00982794
     32      1      Pt         -0.00020140    -0.00020955     0.00986390
     33      1      Pt         -0.00006584     0.00189492     0.00087979
     34      1      Pt          0.00000639     0.00184656     0.00116752
     35      1      Pt          0.00000641     0.00209139     0.00035815
     36      1      Pt         -0.00003584     0.00173169     0.00111138
     37      1      Pt         -0.00028889     0.00147956     0.00055423
     38      1      Pt         -0.00018558     0.00155711     0.00107137
     39      1      Pt          0.00015042     0.00149575     0.00100711
     40      1      Pt          0.00022348     0.00152071     0.00043212
     41      1      Pt          0.00001066     0.00191025     0.00113403
[...]
 flops    13 x     5 x   128               998400       0.0%    100.0%      0.0%
 flops     5 x     5 x   128              1152000       0.0%    100.0%      0.0%
 flops    13 x    32 x    13              1297920       0.0%    100.0%      0.0%
 flops    13 x    13 x   128              2595840       0.0%    100.0%      0.0%
 flops     5 x    20 x    96             17664000       0.0%    100.0%      0.0%
 flops    20 x     5 x    96             18048000       0.0%    100.0%      0.0%
 flops    20 x    13 x    96             19468800       0.0%    100.0%      0.0%
 flops    13 x    20 x    96             19968000       0.0%    100.0%      0.0%
 flops     5 x    20 x   120             22080000       0.0%    100.0%      0.0%
 flops    20 x     5 x   120             22560000       0.0%    100.0%      0.0%
 flops    20 x    13 x   120             24336000       0.0%    100.0%      0.0%
 flops    13 x    20 x   120             24960000       0.0%    100.0%      0.0%
 flops     5 x    20 x   128            141312000       0.0%    100.0%      0.0%
 flops    20 x    32 x     5            142848000       0.0%    100.0%      0.0%
 flops     5 x    32 x    20            142848000       0.0%    100.0%      0.0%
 flops    20 x     5 x   128            144384000       0.0%    100.0%      0.0%
 flops    20 x    13 x   128            155750400       0.0%    100.0%      0.0%
 flops    20 x    32 x    13            157747200       0.0%    100.0%      0.0%
 flops    13 x    32 x    20            157747200       0.0%    100.0%      0.0%
 flops    13 x    20 x   128            159744000       0.0%    100.0%      0.0%
 flops    20 x     4 x    20            176947200       0.0%    100.0%      0.0%
 flops    20 x    24 x    20            176947200       0.0%    100.0%      0.0%
 flops    20 x    20 x    96           3575808000       0.0%    100.0%      0.0%
 flops    20 x    20 x   120           4469760000       0.0%    100.0%      0.0%
 flops    20 x    32 x    20          28311552000       0.0%    100.0%      0.0%
 flops    20 x    20 x   128          28606464000       0.0%    100.0%      0.0%
 flops inhomo. stacks                           0       0.0%      0.0%      0.0%
 flops total                        66.707933E+09       0.0%    100.0%      0.0%
 flops max/rank                      1.166726E+09       0.0%    100.0%      0.0%
 matmuls inhomo. stacks                         0       0.0%      0.0%      0.0%
 matmuls total                            1633045       0.0%    100.0%      0.0%
 number of processed stacks                 17063       0.0%    100.0%      0.0%
 average stack size                                     0.0      95.7       0.0
 marketing flops                    68.467933E+09
 -------------------------------------------------------------------------------
 # multiplications                             17
 max memory usage/rank             844.365824E+06
 # max total images/rank                        1
 # max 3D layers                                1
 # MPI messages exchanged                   15232
 MPI messages size (bytes):
  total size                         4.040349E+09
  min size                          69.120000E+03
  max size                         503.752000E+03
  average size                     265.254000E+03
 MPI breakdown and total messages size (bytes):
             size <=      128                   0                        0
       128 < size <=     8192                   0                        0
      8192 < size <=    32768                   0                        0
     32768 < size <=   131072                2688                315978432
    131072 < size <=  4194304               12544               3724370440
   4194304 < size <= 16777216                   0                        0
  16777216 < size                               0                        0
 -------------------------------------------------------------------------------
 -                                                                             -
 -                      DBCSR MESSAGE PASSING PERFORMANCE                      -
 -                                                                             -
 -------------------------------------------------------------------------------
 ROUTINE             CALLS      AVE VOLUME [Bytes]
 MP_Bcast               55                     12.
 MP_Allreduce          216                     18.
 MP_Alltoall           415                 117628.
 MP_ISend              544                 117967.
 MP_IRecv              544                 115708.
 -------------------------------------------------------------------------------

 -------------------------------------------------------------------------------
 -                                                                             -
 -                                DBM STATISTICS                               -
 -                                                                             -
 -------------------------------------------------------------------------------
    M  x    N  x    K                                          COUNT     PERCENT
 -------------------------------------------------------------------------------

 -------------------------------------------------------------------------------
 -                                                                             -
 -                                GRID STATISTICS                              -
 -                                                                             -
 -------------------------------------------------------------------------------
 LP    KERNEL             BACKEND                              COUNT     PERCENT
 4     collocate ortho    REF                                1405467      48.58%
 4     integrate ortho    REF                                1252323      43.29%
 5     integrate ortho    REF                                 156163       5.40%
 3     collocate ortho    REF                                  27171       0.94%
 3     integrate ortho    REF                                  24263       0.84%
 0     collocate general  REF                                  12672       0.44%
 0     integrate general  REF                                   6336       0.22%
 1     integrate general  REF                                   6336       0.22%
 2     collocate ortho    REF                                   1484       0.05%
 2     integrate ortho    REF                                    888       0.03%
 1     collocate ortho    REF                                     10       0.00%
 -------------------------------------------------------------------------------

 MEMORY| Estimated peak process memory [MiB]                                 950

 -------------------------------------------------------------------------------
 ----                             MULTIGRID INFO                            ----
 -------------------------------------------------------------------------------
 count for grid        1:         504571          cutoff [a.u.]          200.00
 count for grid        2:         502074          cutoff [a.u.]           66.67
 count for grid        3:         281527          cutoff [a.u.]           22.22
 count for grid        4:         175651          cutoff [a.u.]            7.41
 total gridlevel count  :        1463823

 -------------------------------------------------------------------------------
 -                                                                             -
 -                         MESSAGE PASSING PERFORMANCE                         -
 -                                                                             -
 -------------------------------------------------------------------------------

 ROUTINE             CALLS      AVE VOLUME [Bytes]
 MP_Group                4
 MP_Bcast             2558                 231850.
 MP_Allreduce          969                  13493.
 MP_Sync                23
 MP_Alltoall           239               10644581.
 MP_SendRecv           378                  38213.
 MP_ISendRecv         2394                  26400.
 MP_Wait              5811
 MP_comm_split           9
 MP_ISend             3146                  87627.
 MP_IRecv             3146                  87711.
 MP_Recv                60                 497408.
 MP_Write_All            1                 197520.
 -------------------------------------------------------------------------------


 -------------------------------------------------------------------------------
 -                                                                             -
 -                           R E F E R E N C E S                               -
 -                                                                             -
 -------------------------------------------------------------------------------
 
 CP2K version 2022.1, the CP2K developers group (2022).
 CP2K is freely available from https://www.cp2k.org/ .

 Kuehne,Thomas D.; Iannuzzi,Marcella; Del Ben,Mauro;
 Rybkin,Vladimir V.; Seewald,Patrick; Stein,Frederick; Laino,Teodoro;
 Khaliullin,Rustam Z.; Schuett,Ole; Schiffmann,Florian; Golze,Dorothea;
 Wilhelm,Jan; Chulkov,Sergey; Bani-Hashemian,Mohammad Hossein;
 Weber,Valery; Borstnik,Urban; Taillefumier,Mathieu;
 Jakobovits,Alice Shoshana; Lazzaro,Alfio; Pabst,Hans; Mueller,Tiziano;
 Schade,Robert; Guidon,Manuel; Andermatt,Samuel; Holmberg,Nico;
 Schenter,Gregory K.; Hehn,Anna; Bussy,Augustin; Belleflamme,Fabian;
 Tabacchi,Gloria; Gloess,Andreas; Lass,Michael; Bethune,Iain;
 Mundy,Christopher J.; Plessl,Christian; Watkins,Matt;
 VandeVondele,Joost; Krack,Matthias; Hutter,Juerg. 
 The Journal of Chemical Physics, 152 (19), (2020). 
 CP2K: An electronic structure and molecular dynamics software package -
 Quickstep: Efficient and accurate electronic structure calculations.
 https://doi.org/10.1063/5.0007045

 Goerigk, Lars; Hansen, Andreas; Bauer, Christoph; Ehrlich, Stephan;
 Najibi, Asim; Grimme, Stefan. , 19 (48), (2017). 
 A look at the density functional theory zoo with the advanced GMTKN55 database
 for general main group thermochemistry, kinetics and noncovalent interactions.
 https://doi.org/10.1039/C7CP04913G

 Schuett, Ole; Messmer, Peter; Hutter, Juerg; VandeVondele, Joost. 
 Electronic Structure Calculations on Graphics Processing Units, John
 Wiley & Sons, Ltd, 173-190 (2016). 
 GPU-Accelerated Sparse Matrix-Matrix Multiplication for
 Linear Scaling Density Functional Theory.
 https://doi.org/10.1002/9781118670712.ch8

 Heinecke, A; Henry, G; Hutchinson, M; Pabst, H. 
 Proceedings of Intl. Supercomputing Conference, 981-991 (2016). 
 LIBXSMM: Accelerating Small Matrix Multiplications
 by Runtime Code Generation.
 https://doi.org/10.1109/SC.2016.83

 Borstnik, U; VandeVondele, J; Weber, V; Hutter, J. 
 PARALLEL COMPUTING, 40 (5-6), 47-58 (2014). 
 Sparse matrix multiplication: The distributed block-compressed sparse
 row library.
 https://doi.org/10.1016/j.parco.2014.03.012

 Hutter, J; Iannuzzi, M; Schiffmann, F; VandeVondele, J. 
 WIREs Comput Mol Sci., 4 (1), 15-25 (2014). 
 CP2K: atomistic simulations of condensed matter systems.
 https://doi.org/10.1002/wcms.1159

 Marek, A; Blum, V; Johanni, R; Havu, V; Lang, B; Auckenthaler, T;
 Heinecke, A; Bungartz, H; Lederer, H. 
 Journal of Physics: Condensed Matter, 26 (21), (2014). 
 The ELPA library: scalable parallel eigenvalue solutions for
 electronic structure
 theory and computational science.
 https://doi.org/10.1088/0953-8984/26/21/213201

 Grimme, S; Ehrlich, S; Goerigk, L. 
 JOURNAL OF COMPUTATIONAL CHEMISTRY, 32, 1456 (2011). 
 Effect of the damping function in dispersion corrected density functional theory.
 https://doi.org/10.1002/jcc.21759

 Grimme, S; Antony, J; Ehrlich, S; Krieg, H. 
 JOURNAL OF CHEMICAL PHYSICS, 132 (15), 154104 (2010). 
 A consistent and accurate ab initio parametrization of density
 functional dispersion correction (DFT-D) for the 94 elements H-Pu.
 https://doi.org/10.1063/1.3382344

 VandeVondele, J; Hutter, J. 
 JOURNAL OF CHEMICAL PHYSICS, 127 (11), 114105 (2007). 
 Gaussian basis sets for accurate calculations on molecular systems in
 gas and condensed phases.
 https://doi.org/10.1063/1.2770708

 Krack, M. 
 THEORETICAL CHEMISTRY ACCOUNTS, 114 (1-3), 145-152 (2005). 
 Pseudopotentials for H to Kr optimized for gradient-corrected
 exchange-correlation functionals.
 https://doi.org/10.1007/s00214-005-0655-y

 VandeVondele, J; Krack, M; Mohamed, F; Parrinello, M; Chassaing, T;
 Hutter, J. COMPUTER PHYSICS COMMUNICATIONS, 167 (2), 103-128 (2005). 
 QUICKSTEP: Fast and accurate density functional calculations using a
 mixed Gaussian and plane waves approach.
 https://doi.org/10.1016/j.cpc.2004.12.014

 Frigo, M; Johnson, SG. 
 PROCEEDINGS OF THE IEEE, 93 (2), 216-231 (2005). 
 The design and implementation of FFTW3.
 https://doi.org/10.1109/JPROC.2004.840301

 Hartwigsen, C; Goedecker, S; Hutter, J. 
 PHYSICAL REVIEW B, 58 (7), 3641-3662 (1998). 
 Relativistic separable dual-space Gaussian pseudopotentials from H to Rn.
 https://doi.org/10.1103/PhysRevB.58.3641

 Lippert, G; Hutter, J; Parrinello, M. 
 MOLECULAR PHYSICS, 92 (3), 477-487 (1997). 
 A hybrid Gaussian and plane wave density functional scheme.
 https://doi.org/10.1080/002689797170220

 Perdew, JP; Burke, K; Ernzerhof, M. 
 PHYSICAL REVIEW LETTERS, 77 (18), 3865-3868 (1996). 
 Generalized gradient approximation made simple.
 https://doi.org/10.1103/PhysRevLett.77.3865

 Goedecker, S; Teter, M; Hutter, J. 
 PHYSICAL REVIEW B, 54 (3), 1703-1710 (1996). 
 Separable dual-space Gaussian pseudopotentials.
 https://doi.org/10.1103/PhysRevB.54.1703


 -------------------------------------------------------------------------------
 -                                                                             -
 -                                T I M I N G                                  -
 -                                                                             -
 -------------------------------------------------------------------------------
 SUBROUTINE                       CALLS  ASD         SELF TIME        TOTAL TIME
                                MAXIMUM       AVERAGE  MAXIMUM  AVERAGE  MAXIMUM
 CP2K                                 1  1.0    0.016    0.021   13.611   13.612
 qs_forces                            1  2.0    0.001    0.002   13.372   13.372
 qs_energies                          1  3.0    0.000    0.000   11.361   11.362
 scf_env_do_scf                       1  4.0    0.000    0.000    8.633    8.663
 scf_env_do_scf_inner_loop            8  5.0    0.001    0.002    8.631    8.661
 rebuild_ks_matrix                    9  6.7    0.000    0.000    4.943    4.947
 qs_ks_build_kohn_sham_matrix         9  7.7    0.002    0.003    4.943    4.947
 qs_ks_update_qs_env                  8  6.0    0.000    0.000    4.178    4.182
 sum_up_and_integrate                 9  8.7    0.010    0.014    3.131    3.136
 integrate_v_rspace                   9  9.7    0.000    0.000    3.120    3.127
 qs_rho_update_rho_low                9  6.0    0.000    0.000    2.848    2.849
 calculate_rho_elec                   9  7.0    0.007    0.011    2.848    2.849
 rs_pw_transfer                      80 10.1    0.001    0.001    2.332    2.620
 grid_integrate_task_list             9 10.7    0.863    2.503    0.863    2.503
 grid_collocate_task_list             9  8.0    0.833    2.255    0.833    2.255
 density_rs2pw                        9  8.0    0.001    0.001    1.972    2.254
 mp_waitany                        3146 12.0    1.761    2.061    1.761    2.061
 rs_pw_transfer_RS2PW_200            12  9.8    0.120    0.149    1.734    2.027
 mp_alltoall_d11v                   196 10.8    1.698    2.003    1.698    2.003
 rs_gather_matrices                   9 10.7    0.003    0.004    1.655    1.963
 pw_transfer                        184 10.7    0.012    0.015    1.766    1.795
 fft_wrap_pw1pw2                    166 11.8    0.001    0.002    1.738    1.766
 fft_wrap_pw1pw2_200                109 13.1    0.157    0.184    1.654    1.678
 qs_scf_new_mos                       8  6.0    0.000    0.001    1.615    1.620
 qs_vxc_create                        9  8.7    0.000    0.001    1.571    1.579
 xc_vxc_pw_create                     9  9.7    0.028    0.033    1.570    1.579
 eigensolver                          8  7.0    0.001    0.001    1.467    1.471
 fft3d_ps                           166 13.8    0.634    0.729    1.330    1.357
 build_core_hamiltonian_matrix_       1  3.0    0.000    0.000    1.111    1.233
 scf_post_calculation_gpw             1  4.0    0.001    0.001    1.181    1.181
 xc_pw_derive                        54 11.7    0.001    0.001    1.062    1.087
 cp_fm_diag_elpa                      9  8.1    0.000    0.000    1.067    1.076
 cp_fm_redistribute_end               9  9.1    0.475    1.039    0.476    1.040
 cp_fm_diag_elpa_base                 9  9.1    0.551    1.005    0.559    1.019
 init_scf_run                         1  4.0    0.000    0.001    0.987    0.988
 build_core_ppnl_forces               1  4.0    0.865    0.963    0.865    0.963
 scf_env_initial_rho_setup            1  5.0    0.000    0.000    0.949    0.950
 xc_rho_set_and_dset_create           9 10.7    0.019    0.020    0.781    0.883
 mp_bcast_im                       2418  7.8    0.785    0.798    0.785    0.798
 qs_ks_update_qs_env_forces           1  3.0    0.000    0.000    0.776    0.776
 xc_pw_divergence                     9 10.7    0.000    0.000    0.729    0.750
 potential_pw2rs                      9 10.7    0.001    0.002    0.600    0.604
 get_localization_info                1  5.0    0.000    0.000    0.588    0.593
 qs_loc_driver                        1  6.0    0.000    0.001    0.588    0.593
 calculate_first_density_matrix       1  6.0    0.000    0.004    0.586    0.587
 mp_alltoall_z22v                   166 15.8    0.514    0.553    0.514    0.553
 qs_energies_init_hamiltonians        1  4.0    0.001    0.001    0.521    0.522
 mp_sum_d                           500  2.3    0.210    0.487    0.210    0.487
 cp_fm_triangular_multiply           24  8.0    0.446    0.457    0.446    0.457
 qs_loc_init                          1  5.0    0.000    0.001    0.435    0.449
 read_mo_set_from_restart             1  7.0    0.009    0.439    0.443    0.443
 loc_read_restart                     1  6.0    0.008    0.403    0.407    0.407
 yz_to_x                             57 15.1    0.055    0.062    0.360    0.398
 calculate_ecore_overlap              2  4.0    0.000    0.000    0.123    0.388
 rs_pw_transfer_PW2RS_200            11 11.9    0.153    0.170    0.380    0.387
 qs_print_cubes                       1  7.0    0.021    0.025    0.375    0.376
 xc_functional_eval                   9 11.7    0.000    0.000    0.256    0.366
 pbe_lda_eval                         9 12.7    0.256    0.366    0.256    0.366
 build_core_hamiltonian_matrix        1  5.0    0.000    0.000    0.312    0.348
 x_to_yz                             71 14.8    0.104    0.148    0.310    0.337
 gspace_mixing                        7  6.0    0.006    0.009    0.287    0.287
 -------------------------------------------------------------------------------

 The number of warnings for this run is : 1
 
 -------------------------------------------------------------------------------
  **** **** ******  **  PROGRAM ENDED AT                 2024-07-29 23:06:27.982
 ***** ** ***  *** **   PROGRAM RAN ON                                     cu182
 **    ****   ******    PROGRAM RAN BY                                     jxzhu
 ***** **    ** ** **   PROGRAM PROCESS ID                                 35647
  **** **  *******  **  PROGRAM STOPPED IN /public/home/jxzhu/workspace/2022_lei
                                           den/08.Pt_111/01.elec_eps/06.alpha-z_
                                           test/mo/water_a
