 DBCSR| CPU Multiplication driver                                           XSMM (U)
 DBCSR| Multrec recursion limit                                              512 (U)
 DBCSR| Multiplication stack size                                           1000 (D)
 DBCSR| Maximum elements for images                                    UNLIMITED (U)
 DBCSR| Multiplicative factor virtual images                                   1 (U)
 DBCSR| Use multiplication densification                                       T (D)
 DBCSR| Multiplication size stacks                                             3 (U)
 DBCSR| Use memory pool for CPU allocation                                     F (U)
 DBCSR| Number of 3D layers                                               SINGLE (U)
 DBCSR| Use MPI memory allocation                                              F (U)
 DBCSR| Use RMA algorithm                                                      F (U)
 DBCSR| Use Communication thread                                               T (U)
 DBCSR| Communication thread load                                             87 (D)
 DBCSR| MPI: My process id                                                     0
 DBCSR| MPI: Number of processes                                              64
 DBCSR| OMP: Current number of threads                                         1
 DBCSR| OMP: Max number of threads                                             1
 DBCSR| Split modifier for TAS multiplication algorithm                  1.0E+00 (U)


  **** **** ******  **  PROGRAM STARTED AT               2024-11-02 23:18:24.191
 ***** ** ***  *** **   PROGRAM STARTED ON                                 cu025
 **    ****   ******    PROGRAM STARTED BY                                 jxzhu
 ***** **    ** ** **   PROGRAM PROCESS ID                               1247768
  **** **  *******  **  PROGRAM STARTED IN /public/home/jxzhu/workspace/2022_lei
                                           den/08.Pt_111/01.elec_eps/06.alpha-z_
                                           test/mo/water_a

 CP2K| version string:                                       CP2K version 2024.3
 CP2K| source code revision number:                                  git:6712648
 CP2K| cp2kflags: omp libint fftw3 libxc elpa parallel scalapack xsmm max_contr=
 CP2K|            4 plumed2 mkl
 CP2K| is freely available from                            https://www.cp2k.org/
 CP2K| Program compiled at            2024年 10月 16日 星期三 15:04:20 CST
 CP2K| Program compiled on                                                 mu011
 CP2K| Program compiled for                                  Linux-x86-64-intelx
 CP2K| Data directory path                             /public/home/jxzhu/basis/
 CP2K| Input file name                                                 input.inp
 
 GLOBAL| Force Environment number                                              1
 GLOBAL| Basis set file name                                        BASIS_MOLOPT
 GLOBAL| Potential file name                                      GTH_POTENTIALS
 GLOBAL| MM Potential file name                                     MM_POTENTIAL
 GLOBAL| Coordinate file name                                          coord.xyz
 GLOBAL| Method name                                                        CP2K
 GLOBAL| Project name                                                       cp2k
 GLOBAL| Run type                                                   ENERGY_FORCE
 GLOBAL| FFT library                                                       FFTW3
 GLOBAL| Diagonalization library                                            ELPA
 GLOBAL| DGEMM library                                                      BLAS
 GLOBAL| Minimum number of eigenvectors for ELPA usage                        16
 GLOBAL| Orthonormality check for eigenvectors                          DISABLED
 GLOBAL| Matrix multiplication library                                 ScaLAPACK
 GLOBAL| All-to-all communication in single precision                          F
 GLOBAL| FFTs using library dependent lengths                                  F
 GLOBAL| Grid backend                                                       AUTO
 GLOBAL| Global print level                                               MEDIUM
 GLOBAL| MPI I/O enabled                                                       T
 GLOBAL| Total number of message passing processes                            64
 GLOBAL| Number of threads for this process                                    1
 GLOBAL| This output is from process                                           0
 GLOBAL| Stack size for threads created by OpenMP (OMP_STACKSIZE)        default
 GLOBAL| CPU model name                 Intel(R) Xeon(R) Gold 6338 CPU @ 2.00GHz
 GLOBAL| CPUID                                                              1003

 MEMORY| system memory details [Kb]
 MEMORY|                        rank 0           min           max       average
 MEMORY| MemTotal            263407536     263407536     263407536     263407536
 MEMORY| MemFree             240391188     240391188     240391244     240391203
 MEMORY| Buffers                  3820          3820          3820          3820
 MEMORY| Cached                1987216       1987216       1987216       1987216
 MEMORY| Slab                  1250480       1250480       1250480       1250480
 MEMORY| SReclaimable           347016        347016        347016        347016
 MEMORY| MemLikelyFree       242729240     242729240     242729296     242729255


 *** Fundamental physical constants (SI units) ***

 *** Literature: B. J. Mohr and B. N. Taylor,
 ***             CODATA recommended values of the fundamental physical
 ***             constants: 2006, Web Version 5.1
 ***             http://physics.nist.gov/constants

 Speed of light in vacuum [m/s]                             2.99792458000000E+08
 Magnetic constant or permeability of vacuum [N/A**2]       1.25663706143592E-06
 Electric constant or permittivity of vacuum [F/m]          8.85418781762039E-12
 Planck constant (h) [J*s]                                  6.62606896000000E-34
 Planck constant (h-bar) [J*s]                              1.05457162825177E-34
 Elementary charge [C]                                      1.60217648700000E-19
 Electron mass [kg]                                         9.10938215000000E-31
 Electron g factor [ ]                                     -2.00231930436220E+00
 Proton mass [kg]                                           1.67262163700000E-27
 Fine-structure constant                                    7.29735253760000E-03
 Rydberg constant [1/m]                                     1.09737315685270E+07
 Avogadro constant [1/mol]                                  6.02214179000000E+23
 Boltzmann constant [J/K]                                   1.38065040000000E-23
 Atomic mass unit [kg]                                      1.66053878200000E-27
 Bohr radius [m]                                            5.29177208590000E-11

 *** Conversion factors ***

 [u] -> [a.u.]                                              1.82288848426455E+03
 [Angstrom] -> [Bohr] = [a.u.]                              1.88972613288564E+00
 [a.u.] = [Bohr] -> [Angstrom]                              5.29177208590000E-01
 [a.u.] -> [s]                                              2.41888432650478E-17
 [a.u.] -> [fs]                                             2.41888432650478E-02
 [a.u.] -> [J]                                              4.35974393937059E-18
 [a.u.] -> [N]                                              8.23872205491840E-08
 [a.u.] -> [K]                                              3.15774647902944E+05
 [a.u.] -> [kJ/mol]                                         2.62549961709828E+03
 [a.u.] -> [kcal/mol]                                       6.27509468713739E+02
 [a.u.] -> [Pa]                                             2.94210107994716E+13
 [a.u.] -> [bar]                                            2.94210107994716E+08
 [a.u.] -> [atm]                                            2.90362800883016E+08
 [a.u.] -> [eV]                                             2.72113838565563E+01
 [a.u.] -> [Hz]                                             6.57968392072181E+15
 [a.u.] -> [1/cm] (wave numbers)                            2.19474631370540E+05
 [a.u./Bohr**2] -> [1/cm]                                   5.14048714338585E+03
 

 CELL_TOP| Volume [angstrom^3]:                                      4542.849048
 CELL_TOP| Vector a [angstrom    11.246     0.000     0.000   |a| =    11.245800
 CELL_TOP| Vector b [angstrom     0.000     9.739     0.000   |b| =     9.739200
 CELL_TOP| Vector c [angstrom     0.000     0.000    41.478   |c| =    41.477700
 CELL_TOP| Angle (b,c), alpha [degree]:                                90.000000
 CELL_TOP| Angle (a,c), beta  [degree]:                                90.000000
 CELL_TOP| Angle (a,b), gamma [degree]:                                90.000000
 CELL_TOP| Numerically orthorhombic:                                         YES
 CELL_TOP| Periodicity                                                       XYZ
 
 GENERATE|  Preliminary Number of Bonds generated:                             0
 GENERATE|  Achieved consistency in connectivity generation.

 CELL| Volume [angstrom^3]:                                          4542.849048
 CELL| Vector a [angstrom]:      11.246     0.000     0.000   |a| =    11.245800
 CELL| Vector b [angstrom]:       0.000     9.739     0.000   |b| =     9.739200
 CELL| Vector c [angstrom]:       0.000     0.000    41.478   |c| =    41.477700
 CELL| Angle (b,c), alpha [degree]:                                    90.000000
 CELL| Angle (a,c), beta  [degree]:                                    90.000000
 CELL| Angle (a,b), gamma [degree]:                                    90.000000
 CELL| Numerically orthorhombic:                                             YES
 CELL| Periodicity                                                           XYZ

 CELL_REF| Volume [angstrom^3]:                                      4542.849048
 CELL_REF| Vector a [angstrom    11.246     0.000     0.000   |a| =    11.245800
 CELL_REF| Vector b [angstrom     0.000     9.739     0.000   |b| =     9.739200
 CELL_REF| Vector c [angstrom     0.000     0.000    41.478   |c| =    41.477700
 CELL_REF| Angle (b,c), alpha [degree]:                                90.000000
 CELL_REF| Angle (a,c), beta  [degree]:                                90.000000
 CELL_REF| Angle (a,b), gamma [degree]:                                90.000000
 CELL_REF| Numerically orthorhombic:                                         YES
 CELL_REF| Periodicity                                                       XYZ

 *******************************************************************************
 *******************************************************************************
 **                                                                           **
 **     #####                         ##              ##                      **
 **    ##   ##            ##          ##              ##                      **
 **   ##     ##                       ##            ######                    **
 **   ##     ##  ##   ##  ##   #####  ##  ##   ####   ##    #####    #####    **
 **   ##     ##  ##   ##  ##  ##      ## ##   ##      ##   ##   ##  ##   ##   **
 **   ##  ## ##  ##   ##  ##  ##      ####     ###    ##   ######   ######    **
 **    ##  ###   ##   ##  ##  ##      ## ##      ##   ##   ##       ##        **
 **     #######   #####   ##   #####  ##  ##  ####    ##    #####   ##        **
 **           ##                                                    ##        **
 **                                                                           **
 **                                                ... make the atoms dance   **
 **                                                                           **
 **            Copyright (C) by CP2K developers group (2000-2024)             **
 **                      J. Chem. Phys. 152, 194103 (2020)                    **
 **                                                                           **
 *******************************************************************************

 DFT| Spin restricted Kohn-Sham (RKS) calculation                            RKS
 DFT| Multiplicity                                                             1
 DFT| Number of spin states                                                    1
 DFT| Charge                                                                   0
 DFT| Self-interaction correction (SIC)                                       NO
 DFT| Cutoffs: density                                              1.000000E-10
 DFT|          gradient                                             1.000000E-10
 DFT|          tau                                                  1.000000E-10
 DFT|          cutoff_smoothing_range                               0.000000E+00
 DFT| XC density smoothing                                                  NONE
 DFT| XC derivatives                                                          PW

 FUNCTIONAL| PBE:
 FUNCTIONAL| J.P.Perdew, K.Burke, M.Ernzerhof, Phys. Rev. Letter, vol. 77, n 18,
 FUNCTIONAL|  pp. 3865-3868, (1996) {spin unpolarized}                          

 vdW POTENTIAL|                                                   Pair Potential
 vdW POTENTIAL|          DFT-D3 (Version 3.1)
 vdW POTENTIAL|          Potential Form: S. Grimme et al, JCP 132: 154104 (2010)
 vdW POTENTIAL|          Zero Damping
 vdW POTENTIAL|          Cutoff Radius [Bohr]:                             20.00
 vdW POTENTIAL|          s6 Scaling Factor:                               1.0000
 vdW POTENTIAL|          sr6 Scaling Factor:                              1.2170
 vdW POTENTIAL|          s8 Scaling Factor:                               0.7220
 vdW POTENTIAL|          Cutoff for CN calculation:                   0.1000E-05

 QS| Method:                                                                 GPW
 QS| Density plane wave grid type                        NON-SPHERICAL FULLSPACE
 QS| Number of grid levels:                                                    4
 QS| Density cutoff [a.u.]:                                                200.0
 QS| Multi grid cutoff [a.u.]: 1) grid level                               200.0
 QS|                           2) grid level                                66.7
 QS|                           3) grid level                                22.2
 QS|                           4) grid level                                 7.4
 QS| Grid level progression factor:                                          3.0
 QS| Relative density cutoff [a.u.]:                                        20.0
 QS| Interaction thresholds: eps_pgf_orb:                                3.2E-07
 QS|                         eps_filter_matrix:                          0.0E+00
 QS|                         eps_core_charge:                            1.0E-15
 QS|                         eps_rho_gspace:                             1.0E-13
 QS|                         eps_rho_rspace:                             1.0E-13
 QS|                         eps_gvg_rspace:                             3.2E-07
 QS|                         eps_ppl:                                    1.0E-02
 QS|                         eps_ppnl:                                   3.2E-09


 ATOMIC KIND INFORMATION

  1. Atomic kind: Pt                                    Number of atoms:      96

     Orbital Basis Set                      DZVP-A5-Q10-323-MOL-T1-DERIVED_SET-1

       Number of orbital shell sets:                                           1
       Number of orbital shells:                                               6
       Number of primitive Cartesian functions:                                5
       Number of Cartesian basis functions:                                   23
       Number of spherical basis functions:                                   20
       Norm type:                                                              2

       Normalised Cartesian orbitals:

                        Set   Shell   Orbital            Exponent    Coefficient

                          1       1    2s                2.521825       0.177473
                                                         1.453920      -0.063399
                                                         0.614053      -0.407089
                                                         0.232656       0.262254
                                                         0.074788       0.047371

                          1       2    3s                2.521825      -0.049056
                                                         1.453920       0.044904
                                                         0.614053      -0.009756
                                                         0.232656      -0.144709
                                                         0.074788       0.144085

                          1       3    3px               2.521825      -0.317572
                                                         1.453920       0.534826
                                                         0.614053      -0.489458
                                                         0.232656       0.245631
                                                         0.074788       0.018221
                          1       3    3py               2.521825      -0.317572
                                                         1.453920       0.534826
                                                         0.614053      -0.489458
                                                         0.232656       0.245631
                                                         0.074788       0.018221
                          1       3    3pz               2.521825      -0.317572
                                                         1.453920       0.534826
                                                         0.614053      -0.489458
                                                         0.232656       0.245631
                                                         0.074788       0.018221

                          1       4    4dx2              2.521825       3.008522
                                                         1.453920      -1.224251
                                                         0.614053       0.225691
                                                         0.232656       0.125144
                                                         0.074788      -0.015348
                          1       4    4dxy              2.521825       5.210912
                                                         1.453920      -2.120465
                                                         0.614053       0.390909
                                                         0.232656       0.216756
                                                         0.074788      -0.026584
                          1       4    4dxz              2.521825       5.210912
                                                         1.453920      -2.120465
                                                         0.614053       0.390909
                                                         0.232656       0.216756
                                                         0.074788      -0.026584
                          1       4    4dy2              2.521825       3.008522
                                                         1.453920      -1.224251
                                                         0.614053       0.225691
                                                         0.232656       0.125144
                                                         0.074788      -0.015348
                          1       4    4dyz              2.521825       5.210912
                                                         1.453920      -2.120465
                                                         0.614053       0.390909
                                                         0.232656       0.216756
                                                         0.074788      -0.026584
                          1       4    4dz2              2.521825       3.008522
                                                         1.453920      -1.224251
                                                         0.614053       0.225691
                                                         0.232656       0.125144
                                                         0.074788      -0.015348

                          1       5    5dx2              2.521825       0.698026
                                                         1.453920      -1.511486
                                                         0.614053      -0.335394
                                                         0.232656      -0.025564
                                                         0.074788      -0.002699
                          1       5    5dxy              2.521825       1.209017
                                                         1.453920      -2.617970
                                                         0.614053      -0.580920
                                                         0.232656      -0.044277
                                                         0.074788      -0.004674
                          1       5    5dxz              2.521825       1.209017
                                                         1.453920      -2.617970
                                                         0.614053      -0.580920
                                                         0.232656      -0.044277
                                                         0.074788      -0.004674
                          1       5    5dy2              2.521825       0.698026
                                                         1.453920      -1.511486
                                                         0.614053      -0.335394
                                                         0.232656      -0.025564
                                                         0.074788      -0.002699
                          1       5    5dyz              2.521825       1.209017
                                                         1.453920      -2.617970
                                                         0.614053      -0.580920
                                                         0.232656      -0.044277
                                                         0.074788      -0.004674
                          1       5    5dz2              2.521825       0.698026
                                                         1.453920      -1.511486
                                                         0.614053      -0.335394
                                                         0.232656      -0.025564
                                                         0.074788      -0.002699

                          1       6    6dx2              2.521825       0.831079
                                                         1.453920      -0.709226
                                                         0.614053      -0.137351
                                                         0.232656       0.068642
                                                         0.074788       0.011745
                          1       6    6dxy              2.521825       1.439472
                                                         1.453920      -1.228415
                                                         0.614053      -0.237899
                                                         0.232656       0.118891
                                                         0.074788       0.020343
                          1       6    6dxz              2.521825       1.439472
                                                         1.453920      -1.228415
                                                         0.614053      -0.237899
                                                         0.232656       0.118891
                                                         0.074788       0.020343
                          1       6    6dy2              2.521825       0.831079
                                                         1.453920      -0.709226
                                                         0.614053      -0.137351
                                                         0.232656       0.068642
                                                         0.074788       0.011745
                          1       6    6dyz              2.521825       1.439472
                                                         1.453920      -1.228415
                                                         0.614053      -0.237899
                                                         0.232656       0.118891
                                                         0.074788       0.020343
                          1       6    6dz2              2.521825       0.831079
                                                         1.453920      -0.709226
                                                         0.614053      -0.137351
                                                         0.232656       0.068642
                                                         0.074788       0.011745

       Atomic covalent radius [Angstrom]:                                  1.300

       Atomic van der Waals radius [Angstrom]:                             1.750

     GTH Potential information for                                   GTH-PBE-q10

       Description:                       Goedecker-Teter-Hutter pseudopotential
                                           Goedecker et al., PRB 54, 1703 (1996)
                                          Hartwigsen et al., PRB 58, 3641 (1998)
                                                      Krack, TCA 114, 145 (2005)

       Gaussian exponent of the core charge distribution:               1.317676
       Electronic configuration (s p d ...):                           1   0   9

       Parameters of the local part of the GTH pseudopotential:

                          rloc        C1          C2          C3          C4
                        0.616000   11.313635

       Parameters of the non-local part of the GTH pseudopotential:

                   l      r(l)      h(i,j,l)

                   0    0.550904    4.733491   -1.784594
                                   -1.784594    2.303901
                   1    0.674138    2.534798   -1.778066
                                   -1.778066    2.103836
                   2    0.457392   -7.264011    2.558665
                                    2.558665   -2.901253

  2. Atomic kind: O                                     Number of atoms:       1

     Orbital Basis Set                                        DZVP-MOLOPT-SR-GTH

       Number of orbital shell sets:                                           1
       Number of orbital shells:                                               5
       Number of primitive Cartesian functions:                                5
       Number of Cartesian basis functions:                                   14
       Number of spherical basis functions:                                   13
       Norm type:                                                              2

       Normalised Cartesian orbitals:

                        Set   Shell   Orbital            Exponent    Coefficient

                          1       1    2s               10.389228       0.396646
                                                         3.849621       0.208811
                                                         1.388401      -0.301641
                                                         0.496955      -0.274061
                                                         0.162492      -0.033677

                          1       2    3s               10.389228       0.303673
                                                         3.849621       0.240943
                                                         1.388401      -0.313066
                                                         0.496955      -0.043055
                                                         0.162492       0.213991

                          1       3    3px              10.389228      -1.530415
                                                         3.849621      -1.371928
                                                         1.388401      -0.761951
                                                         0.496955      -0.253695
                                                         0.162492      -0.035541
                          1       3    3py              10.389228      -1.530415
                                                         3.849621      -1.371928
                                                         1.388401      -0.761951
                                                         0.496955      -0.253695
                                                         0.162492      -0.035541
                          1       3    3pz              10.389228      -1.530415
                                                         3.849621      -1.371928
                                                         1.388401      -0.761951
                                                         0.496955      -0.253695
                                                         0.162492      -0.035541

                          1       4    4px              10.389228      -0.565392
                                                         3.849621      -0.038231
                                                         1.388401      -0.382373
                                                         0.496955       0.179070
                                                         0.162492       0.122714
                          1       4    4py              10.389228      -0.565392
                                                         3.849621      -0.038231
                                                         1.388401      -0.382373
                                                         0.496955       0.179070
                                                         0.162492       0.122714
                          1       4    4pz              10.389228      -0.565392
                                                         3.849621      -0.038231
                                                         1.388401      -0.382373
                                                         0.496955       0.179070
                                                         0.162492       0.122714

                          1       5    4dx2             10.389228       1.867377
                                                         3.849621       0.670994
                                                         1.388401       1.353441
                                                         0.496955       0.273538
                                                         0.162492       0.006620
                          1       5    4dxy             10.389228       3.234392
                                                         3.849621       1.162195
                                                         1.388401       2.344229
                                                         0.496955       0.473781
                                                         0.162492       0.011466
                          1       5    4dxz             10.389228       3.234392
                                                         3.849621       1.162195
                                                         1.388401       2.344229
                                                         0.496955       0.473781
                                                         0.162492       0.011466
                          1       5    4dy2             10.389228       1.867377
                                                         3.849621       0.670994
                                                         1.388401       1.353441
                                                         0.496955       0.273538
                                                         0.162492       0.006620
                          1       5    4dyz             10.389228       3.234392
                                                         3.849621       1.162195
                                                         1.388401       2.344229
                                                         0.496955       0.473781
                                                         0.162492       0.011466
                          1       5    4dz2             10.389228       1.867377
                                                         3.849621       0.670994
                                                         1.388401       1.353441
                                                         0.496955       0.273538
                                                         0.162492       0.006620

       Atomic covalent radius [Angstrom]:                                  0.730

       Atomic van der Waals radius [Angstrom]:                             1.520

     GTH Potential information for                                    GTH-PBE-q6

       Description:                       Goedecker-Teter-Hutter pseudopotential
                                           Goedecker et al., PRB 54, 1703 (1996)
                                          Hartwigsen et al., PRB 58, 3641 (1998)
                                                      Krack, TCA 114, 145 (2005)

       Gaussian exponent of the core charge distribution:               8.360253
       Electronic configuration (s p d ...):                               2   4

       Parameters of the local part of the GTH pseudopotential:

                          rloc        C1          C2          C3          C4
                        0.244554  -16.667215    2.487311

       Parameters of the non-local part of the GTH pseudopotential:

                   l      r(l)      h(i,j,l)

                   0    0.220956   18.337458
                   1    0.211332

  3. Atomic kind: H                                     Number of atoms:       2

     Orbital Basis Set                                        DZVP-MOLOPT-SR-GTH

       Number of orbital shell sets:                                           1
       Number of orbital shells:                                               3
       Number of primitive Cartesian functions:                                5
       Number of Cartesian basis functions:                                    5
       Number of spherical basis functions:                                    5
       Norm type:                                                              2

       Normalised Cartesian orbitals:

                        Set   Shell   Orbital            Exponent    Coefficient

                          1       1    2s               10.068468      -0.133023
                                                         2.680223      -0.177618
                                                         0.791502      -0.258419
                                                         0.239116      -0.107525
                                                         0.082193      -0.014019

                          1       2    3s               10.068468       0.344673
                                                         2.680223       1.819821
                                                         0.791502      -0.999069
                                                         0.239116       0.017430
                                                         0.082193       0.082660

                          1       3    3px              10.068468       0.155326
                                                         2.680223       0.367157
                                                         0.791502       0.311480
                                                         0.239116       0.080105
                                                         0.082193       0.033440
                          1       3    3py              10.068468       0.155326
                                                         2.680223       0.367157
                                                         0.791502       0.311480
                                                         0.239116       0.080105
                                                         0.082193       0.033440
                          1       3    3pz              10.068468       0.155326
                                                         2.680223       0.367157
                                                         0.791502       0.311480
                                                         0.239116       0.080105
                                                         0.082193       0.033440

       Atomic covalent radius [Angstrom]:                                  0.320

       Atomic van der Waals radius [Angstrom]:                             1.090

     GTH Potential information for                                    GTH-PBE-q1

       Description:                       Goedecker-Teter-Hutter pseudopotential
                                           Goedecker et al., PRB 54, 1703 (1996)
                                          Hartwigsen et al., PRB 58, 3641 (1998)
                                                      Krack, TCA 114, 145 (2005)

       Gaussian exponent of the core charge distribution:              12.500000
       Electronic configuration (s p d ...):                                   1

       Parameters of the local part of the GTH pseudopotential:

                          rloc        C1          C2          C3          C4
                        0.200000   -4.178900    0.724463


 MOLECULE KIND INFORMATION


 All atoms are their own molecule, skipping detailed information


 TOTAL NUMBERS AND MAXIMUM NUMBERS

  Total number of            - Atomic kinds:                                   3
                             - Atoms:                                         99
                             - Shell sets:                                    99
                             - Shells:                                       587
                             - Primitive Cartesian functions:                495
                             - Cartesian basis functions:                   2232
                             - Spherical basis functions:                   1943

  Maximum angular momentum of- Orbital basis functions:                        2
                             - Local part of the GTH pseudopotential:          2
                             - Non-local part of the GTH pseudopotential:      4


 MODULE QUICKSTEP: ATOMIC COORDINATES IN ANGSTROM

   Atom Kind Element         X             Y             Z       Z(eff)     Mass
      1    1 Pt   78      1.405728      0.811598     15.000000  10.0000 195.0840
      2    1 Pt   78      4.217185      0.811598     15.000000  10.0000 195.0840
      3    1 Pt   78      7.028641      0.811598     15.000000  10.0000 195.0840
      4    1 Pt   78      9.840098      0.811598     15.000000  10.0000 195.0840
      5    1 Pt   78      0.000000      3.246390     15.000000  10.0000 195.0840
      6    1 Pt   78      2.811457      3.246390     15.000000  10.0000 195.0840
      7    1 Pt   78      5.622913      3.246390     15.000000  10.0000 195.0840
      8    1 Pt   78      8.434370      3.246390     15.000000  10.0000 195.0840
      9    1 Pt   78      1.405728      5.681183     15.000000  10.0000 195.0840
     10    1 Pt   78      4.217185      5.681183     15.000000  10.0000 195.0840
     11    1 Pt   78      7.028641      5.681183     15.000000  10.0000 195.0840
     12    1 Pt   78      9.840098      5.681183     15.000000  10.0000 195.0840
     13    1 Pt   78      0.000000      8.115976     15.000000  10.0000 195.0840
     14    1 Pt   78      2.811457      8.115976     15.000000  10.0000 195.0840
     15    1 Pt   78      5.622913      8.115976     15.000000  10.0000 195.0840
     16    1 Pt   78      8.434370      8.115976     15.000000  10.0000 195.0840
     17    1 Pt   78      0.000000      1.623195     17.295545  10.0000 195.0840
     18    1 Pt   78      2.811457      1.623195     17.295545  10.0000 195.0840
     19    1 Pt   78      5.622913      1.623195     17.295545  10.0000 195.0840
     20    1 Pt   78      8.434370      1.623195     17.295545  10.0000 195.0840
     21    1 Pt   78      1.405728      4.057988     17.295545  10.0000 195.0840
     22    1 Pt   78      4.217185      4.057988     17.295545  10.0000 195.0840
     23    1 Pt   78      7.028641      4.057988     17.295545  10.0000 195.0840
     24    1 Pt   78      9.840098      4.057988     17.295545  10.0000 195.0840
     25    1 Pt   78      0.000000      6.492781     17.295545  10.0000 195.0840
     26    1 Pt   78      2.811457      6.492781     17.295545  10.0000 195.0840
     27    1 Pt   78      5.622913      6.492781     17.295545  10.0000 195.0840
     28    1 Pt   78      8.434370      6.492781     17.295545  10.0000 195.0840
     29    1 Pt   78      1.405728      8.927574     17.295545  10.0000 195.0840
     30    1 Pt   78      4.217185      8.927574     17.295545  10.0000 195.0840
     31    1 Pt   78      7.028641      8.927574     17.295545  10.0000 195.0840
     32    1 Pt   78      9.840098      8.927574     17.295545  10.0000 195.0840
     33    1 Pt   78      0.000000      0.000000     19.591089  10.0000 195.0840
     34    1 Pt   78      2.811457      0.000000     19.591089  10.0000 195.0840
     35    1 Pt   78      5.622913      0.000000     19.591089  10.0000 195.0840
     36    1 Pt   78      8.434370      0.000000     19.591089  10.0000 195.0840
     37    1 Pt   78      1.405728      2.434793     19.591089  10.0000 195.0840
     38    1 Pt   78      4.217185      2.434793     19.591089  10.0000 195.0840
     39    1 Pt   78      7.028641      2.434793     19.591089  10.0000 195.0840
     40    1 Pt   78      9.840098      2.434793     19.591089  10.0000 195.0840
     41    1 Pt   78      0.000000      4.869586     19.591089  10.0000 195.0840
     42    1 Pt   78      2.811457      4.869586     19.591089  10.0000 195.0840
     43    1 Pt   78      5.622913      4.869586     19.591089  10.0000 195.0840
     44    1 Pt   78      8.434370      4.869586     19.591089  10.0000 195.0840
     45    1 Pt   78      1.405728      7.304378     19.591089  10.0000 195.0840
     46    1 Pt   78      4.217185      7.304378     19.591089  10.0000 195.0840
     47    1 Pt   78      7.028641      7.304378     19.591089  10.0000 195.0840
     48    1 Pt   78      9.840098      7.304378     19.591089  10.0000 195.0840
     49    1 Pt   78      1.405728      0.811598     21.886634  10.0000 195.0840
     50    1 Pt   78      4.217185      0.811598     21.886634  10.0000 195.0840
     51    1 Pt   78      7.028641      0.811598     21.886634  10.0000 195.0840
     52    1 Pt   78      9.840098      0.811598     21.886634  10.0000 195.0840
     53    1 Pt   78      0.000000      3.246390     21.886634  10.0000 195.0840
     54    1 Pt   78      2.811457      3.246390     21.886634  10.0000 195.0840
     55    1 Pt   78      5.622913      3.246390     21.886634  10.0000 195.0840
     56    1 Pt   78      8.434370      3.246390     21.886634  10.0000 195.0840
     57    1 Pt   78      1.405728      5.681183     21.886634  10.0000 195.0840
     58    1 Pt   78      4.217185      5.681183     21.886634  10.0000 195.0840
     59    1 Pt   78      7.028641      5.681183     21.886634  10.0000 195.0840
     60    1 Pt   78      9.840098      5.681183     21.886634  10.0000 195.0840
     61    1 Pt   78      0.000000      8.115976     21.886634  10.0000 195.0840
     62    1 Pt   78      2.811457      8.115976     21.886634  10.0000 195.0840
     63    1 Pt   78      5.622913      8.115976     21.886634  10.0000 195.0840
     64    1 Pt   78      8.434370      8.115976     21.886634  10.0000 195.0840
     65    1 Pt   78      0.000000      1.623195     24.182179  10.0000 195.0840
     66    1 Pt   78      2.811457      1.623195     24.182179  10.0000 195.0840
     67    1 Pt   78      5.622913      1.623195     24.182179  10.0000 195.0840
     68    1 Pt   78      8.434370      1.623195     24.182179  10.0000 195.0840
     69    1 Pt   78      1.405728      4.057988     24.182179  10.0000 195.0840
     70    1 Pt   78      4.217185      4.057988     24.182179  10.0000 195.0840
     71    1 Pt   78      7.028641      4.057988     24.182179  10.0000 195.0840
     72    1 Pt   78      9.840098      4.057988     24.182179  10.0000 195.0840
     73    1 Pt   78      0.000000      6.492781     24.182179  10.0000 195.0840
     74    1 Pt   78      2.811457      6.492781     24.182179  10.0000 195.0840
     75    1 Pt   78      5.622913      6.492781     24.182179  10.0000 195.0840
     76    1 Pt   78      8.434370      6.492781     24.182179  10.0000 195.0840
     77    1 Pt   78      1.405728      8.927574     24.182179  10.0000 195.0840
     78    1 Pt   78      4.217185      8.927574     24.182179  10.0000 195.0840
     79    1 Pt   78      7.028641      8.927574     24.182179  10.0000 195.0840
     80    1 Pt   78      9.840098      8.927574     24.182179  10.0000 195.0840
     81    1 Pt   78      0.000000      0.000000     26.477723  10.0000 195.0840
     82    1 Pt   78      2.811457      0.000000     26.477723  10.0000 195.0840
     83    1 Pt   78      5.622913      0.000000     26.477723  10.0000 195.0840
     84    1 Pt   78      8.434370      0.000000     26.477723  10.0000 195.0840
     85    1 Pt   78      1.405728      2.434793     26.477723  10.0000 195.0840
     86    1 Pt   78      4.217185      2.434793     26.477723  10.0000 195.0840
     87    1 Pt   78      7.028641      2.434793     26.477723  10.0000 195.0840
     88    1 Pt   78      9.840098      2.434793     26.477723  10.0000 195.0840
     89    1 Pt   78      0.000000      4.869586     26.477723  10.0000 195.0840
     90    1 Pt   78      2.811457      4.869586     26.477723  10.0000 195.0840
     91    1 Pt   78      5.622913      4.869586     26.477723  10.0000 195.0840
     92    1 Pt   78      8.434370      4.869586     26.477723  10.0000 195.0840
     93    1 Pt   78      1.405728      7.304378     26.477723  10.0000 195.0840
     94    1 Pt   78      4.217185      7.304378     26.477723  10.0000 195.0840
     95    1 Pt   78      7.028641      7.304378     26.477723  10.0000 195.0840
     96    1 Pt   78      9.840098      7.304378     26.477723  10.0000 195.0840
     97    2 O     8      5.622913      4.869586     28.777723   6.0000  15.9994
     98    3 H     1      5.062566      5.632825     28.981673   1.0000   1.0079
     99    3 H     1      5.062566      4.106347     28.981673   1.0000   1.0079



 SCF PARAMETERS         Density guess:                                   RESTART
                        --------------------------------------------------------
                        max_scf:                                             500
                        max_scf_history:                                       0
                        max_diis:                                              4
                        --------------------------------------------------------
                        eps_scf:                                        1.00E-06
                        eps_scf_history:                                0.00E+00
                        eps_diis:                                       1.00E-01
                        eps_eigval:                                     1.00E-05
                        --------------------------------------------------------
                        level_shift [a.u.]:                             0.000000
                        added MOs                                       500    0
                        --------------------------------------------------------
                        Mixing method:                            BROYDEN_MIXING
                                                charge density mixing in g-space
                        --------------------------------------------------------
                        Smear method:                                FERMI_DIRAC
                        Electronic temperature [K]:                        300.0
                        Electronic temperature [a.u.]:                  9.50E-04
                        Accuracy threshold:                             1.00E-10
                        --------------------------------------------------------
                        No outer SCF

 PW_GRID| Information for grid number                                          1
 PW_GRID| Grid distributed over                                    64 processors
 PW_GRID| Real space group dimensions                                    64    1
 PW_GRID| the grid is blocked:                                                NO
 PW_GRID| Cutoff [a.u.]                                                    200.0
 PW_GRID| spherical cutoff:                                                   NO
 PW_GRID|   Bounds   1            -67      67                Points:         135
 PW_GRID|   Bounds   2            -60      59                Points:         120
 PW_GRID|   Bounds   3           -250     249                Points:         500
 PW_GRID| Volume element (a.u.^3)  0.3785E-02     Volume (a.u.^3)     30656.6653
 PW_GRID| Grid span                                                    FULLSPACE
 PW_GRID|   Distribution                         Average         Max         Min
 PW_GRID|   G-Vectors                           126562.5      126630      126495
 PW_GRID|   G-Rays                                 937.5         938         937
 PW_GRID|   Real Space Points                   126562.5      180000      120000

 PW_GRID| Information for grid number                                          2
 PW_GRID| Number of the reference grid                                         1
 PW_GRID| Grid distributed over                                    64 processors
 PW_GRID| Real space group dimensions                                    64    1
 PW_GRID| the grid is blocked:                                                NO
 PW_GRID| Cutoff [a.u.]                                                     66.7
 PW_GRID| spherical cutoff:                                                   NO
 PW_GRID|   Bounds   1            -40      39                Points:          80
 PW_GRID|   Bounds   2            -36      35                Points:          72
 PW_GRID|   Bounds   3           -150     149                Points:         300
 PW_GRID| Volume element (a.u.^3)  0.1774E-01     Volume (a.u.^3)     30656.6653
 PW_GRID| Grid span                                                    FULLSPACE
 PW_GRID|   Distribution                         Average         Max         Min
 PW_GRID|   G-Vectors                            27000.0       27360       26560
 PW_GRID|   G-Rays                                 337.5         342         332
 PW_GRID|   Real Space Points                    27000.0       43200       21600

 PW_GRID| Information for grid number                                          3
 PW_GRID| Number of the reference grid                                         1
 PW_GRID| Grid distributed over                                    64 processors
 PW_GRID| Real space group dimensions                                     8    8
 PW_GRID| the grid is blocked:                                                NO
 PW_GRID| Cutoff [a.u.]                                                     22.2
 PW_GRID| spherical cutoff:                                                   NO
 PW_GRID|   Bounds   1            -22      22                Points:          45
 PW_GRID|   Bounds   2            -20      19                Points:          40
 PW_GRID|   Bounds   3            -90      89                Points:         180
 PW_GRID| Volume element (a.u.^3)  0.9462E-01     Volume (a.u.^3)     30656.6653
 PW_GRID| Grid span                                                    FULLSPACE
 PW_GRID|   Distribution                         Average         Max         Min
 PW_GRID|   G-Vectors                             5062.5        5490        4635
 PW_GRID|   G-Rays                                 112.5         122         103
 PW_GRID|   Real Space Points                     5062.5        5400        4500

 PW_GRID| Information for grid number                                          4
 PW_GRID| Number of the reference grid                                         1
 PW_GRID| Grid distributed over                                    64 processors
 PW_GRID| Real space group dimensions                                     8    8
 PW_GRID| the grid is blocked:                                                NO
 PW_GRID| Cutoff [a.u.]                                                      7.4
 PW_GRID| spherical cutoff:                                                   NO
 PW_GRID|   Bounds   1            -13      13                Points:          27
 PW_GRID|   Bounds   2            -12      11                Points:          24
 PW_GRID|   Bounds   3            -50      49                Points:         100
 PW_GRID| Volume element (a.u.^3)  0.4731         Volume (a.u.^3)     30656.6653
 PW_GRID| Grid span                                                    FULLSPACE
 PW_GRID|   Distribution                         Average         Max         Min
 PW_GRID|   G-Vectors                             1012.5        1269         675
 PW_GRID|   G-Rays                                  37.5          47          25
 PW_GRID|   Real Space Points                     1012.5        1200         900

 POISSON| Solver                                                        PERIODIC
 POISSON| Periodicity                                                        XYZ

 RS_GRID| Information for grid number                                          1
 RS_GRID|   Bounds   1            -67      67                Points:         135
 RS_GRID|   Bounds   2            -60      59                Points:         120
 RS_GRID|   Bounds   3           -250     249                Points:         500
 RS_GRID| Real space distribution over                                 64 groups
 RS_GRID| Real space distribution along direction                              3
 RS_GRID| Border size                                                         34
 RS_GRID|   Distribution                         Average         Max         Min
 RS_GRID|   Planes                                  75.8          76          75

 RS_GRID| Information for grid number                                          2
 RS_GRID|   Bounds   1            -40      39                Points:          80
 RS_GRID|   Bounds   2            -36      35                Points:          72
 RS_GRID|   Bounds   3           -150     149                Points:         300
 RS_GRID| Real space distribution over                                 64 groups
 RS_GRID| Real space distribution along direction                              3
 RS_GRID| Border size                                                         24
 RS_GRID|   Distribution                         Average         Max         Min
 RS_GRID|   Planes                                  52.7          53          52

 RS_GRID| Information for grid number                                          3
 RS_GRID|   Bounds   1            -22      22                Points:          45
 RS_GRID|   Bounds   2            -20      19                Points:          40
 RS_GRID|   Bounds   3            -90      89                Points:         180
 RS_GRID| Real space fully replicated
 RS_GRID| Group size                                                           1

 RS_GRID| Information for grid number                                          4
 RS_GRID|   Bounds   1            -13      13                Points:          27
 RS_GRID|   Bounds   2            -12      11                Points:          24
 RS_GRID|   Bounds   3            -50      49                Points:         100
 RS_GRID| Real space fully replicated
 RS_GRID| Group size                                                           1

 Number of electrons:                                                        968
 Number of occupied orbitals:                                                484
 Number of molecular orbitals:                                               984

 Number of orbital functions:                                               1943
 Number of independent orbital functions:                                   1943

 Extrapolation method: initial_guess


 SCF WAVEFUNCTION OPTIMIZATION

  Step     Update method      Time    Convergence         Total energy    Change
  ------------------------------------------------------------------------------
     1 NoMix/Diag. 0.30E+00    0.7     0.00016518     -2538.0355830170 -2.54E+03
     2 Broy./Diag. 0.30E+00    1.0     0.00195479     -2538.0687736591 -3.32E-02
     3 Broy./Diag. 0.30E+00    1.0     0.00183957     -2538.0657113357  3.06E-03
     4 Broy./Diag. 0.30E+00    1.0     0.00032354     -2538.0667120535 -1.00E-03
     5 Broy./Diag. 0.30E+00    1.0     0.00019637     -2538.0719410674 -5.23E-03
     6 Broy./Diag. 0.30E+00    1.0     0.00003864     -2538.0677630377  4.18E-03
     7 Broy./Diag. 0.30E+00    1.0     0.00001716     -2538.0681739108 -4.11E-04
     8 Broy./Diag. 0.30E+00    1.0     0.00000334     -2538.0680499019  1.24E-04
     9 Broy./Diag. 0.30E+00    1.0     0.00000161     -2538.0680605207 -1.06E-05
    10 Broy./Diag. 0.30E+00    1.0     0.00000110     -2538.0680693775 -8.86E-06
    11 Broy./Diag. 0.30E+00    1.0     0.00000092     -2538.0680793393 -9.96E-06

  *** SCF run converged in    11 steps ***


  Electronic density on regular grids:       -967.9999999999        0.0000000001
  Core density on regular grids:              967.9999999998       -0.0000000002
  Total charge density on r-space grids:       -0.0000000001
  Total charge density g-space grids:          -0.0000000001

  Overlap energy of the core charge distribution:               0.00001067565657
  Self energy of the core charge distribution:              -4440.62962420003350
  Core Hamiltonian energy:                                   1439.78694758818096
  Hartree energy:                                             901.61693780781434
  Exchange-correlation energy:                               -436.69000446134453
  Dispersion energy:                                           -2.11984257984403
  Electronic entropic energy:                                  -0.03250417493992
  Fermi energy:                                                 0.00984917698586

  Total energy:                                             -2538.06807933926711

 The electron density is written in cube file format to the file:

 cp2k-ELECTRON_DENSITY-1_0.cube

 !-----------------------------------------------------------------------------!
                     Mulliken Population Analysis

 #  Atom  Element  Kind  Atomic population                           Net charge
       1     Pt       1         10.055183                             -0.055183
       2     Pt       1         10.054398                             -0.054398
       3     Pt       1         10.054150                             -0.054150
       4     Pt       1         10.054728                             -0.054728
       5     Pt       1         10.054504                             -0.054504
       6     Pt       1         10.054559                             -0.054559
       7     Pt       1         10.054736                             -0.054736
       8     Pt       1         10.054994                             -0.054994
       9     Pt       1         10.054568                             -0.054568
      10     Pt       1         10.055815                             -0.055815
      11     Pt       1         10.055666                             -0.055666
      12     Pt       1         10.054866                             -0.054866
      13     Pt       1         10.054411                             -0.054411
      14     Pt       1         10.055268                             -0.055268
      15     Pt       1         10.053863                             -0.053863
      16     Pt       1         10.055207                             -0.055207
      17     Pt       1          9.972426                              0.027574
      18     Pt       1          9.971966                              0.028034
      19     Pt       1          9.972324                              0.027676
      20     Pt       1          9.971781                              0.028219
      21     Pt       1          9.972409                              0.027591
      22     Pt       1          9.972910                              0.027090
      23     Pt       1          9.972865                              0.027135
      24     Pt       1          9.972269                              0.027731
      25     Pt       1          9.972229                              0.027771
      26     Pt       1          9.973105                              0.026895
      27     Pt       1          9.972966                              0.027034
      28     Pt       1          9.972996                              0.027004
      29     Pt       1          9.972867                              0.027133
      30     Pt       1          9.973182                              0.026818
      31     Pt       1          9.972992                              0.027008
      32     Pt       1          9.972913                              0.027087
      33     Pt       1          9.972735                              0.027265
      34     Pt       1          9.973533                              0.026467
      35     Pt       1          9.974839                              0.025161
      36     Pt       1          9.973871                              0.026129
      37     Pt       1          9.976152                              0.023848
      38     Pt       1          9.973773                              0.026227
      39     Pt       1          9.973971                              0.026029
      40     Pt       1          9.976238                              0.023762
      41     Pt       1          9.974585                              0.025415
      42     Pt       1          9.973858                              0.026142
      43     Pt       1          9.974692                              0.025308
      44     Pt       1          9.973562                              0.026438
      45     Pt       1          9.973462                              0.026538
      46     Pt       1          9.973319                              0.026681
      47     Pt       1          9.973585                              0.026415
      48     Pt       1          9.973533                              0.026467
      49     Pt       1          9.973700                              0.026300
      50     Pt       1          9.972521                              0.027479
      51     Pt       1          9.972723                              0.027277
      52     Pt       1          9.973474                              0.026526
      53     Pt       1          9.972110                              0.027890
      54     Pt       1          9.975947                              0.024053
      55     Pt       1          9.973462                              0.026538
      56     Pt       1          9.975787                              0.024213
      57     Pt       1          9.973281                              0.026719
      58     Pt       1          9.973693                              0.026307
      59     Pt       1          9.973756                              0.026244
      60     Pt       1          9.973385                              0.026615
      61     Pt       1          9.974580                              0.025420
      62     Pt       1          9.973784                              0.026216
      63     Pt       1          9.976597                              0.023403
      64     Pt       1          9.973474                              0.026526
      65     Pt       1          9.972357                              0.027643
      66     Pt       1          9.972574                              0.027426
      67     Pt       1          9.974516                              0.025484
      68     Pt       1          9.973327                              0.026673
      69     Pt       1          9.972724                              0.027276
      70     Pt       1          9.975014                              0.024986
      71     Pt       1          9.971036                              0.028964
      72     Pt       1          9.973431                              0.026569
      73     Pt       1          9.972474                              0.027526
      74     Pt       1          9.975108                              0.024892
      75     Pt       1          9.973667                              0.026333
      76     Pt       1          9.974289                              0.025711
      77     Pt       1          9.973001                              0.026999
      78     Pt       1          9.971873                              0.028127
      79     Pt       1          9.972984                              0.027016
      80     Pt       1          9.972942                              0.027058
      81     Pt       1         10.059899                             -0.059899
      82     Pt       1         10.058941                             -0.058941
      83     Pt       1         10.065878                             -0.065878
      84     Pt       1         10.056112                             -0.056112
      85     Pt       1         10.062667                             -0.062667
      86     Pt       1         10.095274                             -0.095274
      87     Pt       1         10.057521                             -0.057521
      88     Pt       1         10.059913                             -0.059913
      89     Pt       1         10.057607                             -0.057607
      90     Pt       1         10.075762                             -0.075762
      91     Pt       1         10.000292                             -0.000292
      92     Pt       1         10.042711                             -0.042711
      93     Pt       1         10.062425                             -0.062425
      94     Pt       1         10.096391                             -0.096391
      95     Pt       1         10.058940                             -0.058940
      96     Pt       1         10.059698                             -0.059698
      97     O        2          6.164627                             -0.164627
      98     H        3          0.843424                              0.156576
      99     H        3          0.843505                              0.156495
 # Total charge                            968.000000                  0.000000

 !-----------------------------------------------------------------------------!

 !-----------------------------------------------------------------------------!
                           Hirshfeld Charges

  #Atom  Element  Kind  Ref Charge     Population                    Net charge
      1       Pt     1      10.000         10.015                        -0.015
      2       Pt     1      10.000         10.015                        -0.015
      3       Pt     1      10.000         10.015                        -0.015
      4       Pt     1      10.000         10.015                        -0.015
      5       Pt     1      10.000         10.015                        -0.015
      6       Pt     1      10.000         10.015                        -0.015
      7       Pt     1      10.000         10.016                        -0.016
      8       Pt     1      10.000         10.015                        -0.015
      9       Pt     1      10.000         10.015                        -0.015
     10       Pt     1      10.000         10.018                        -0.018
     11       Pt     1      10.000         10.017                        -0.017
     12       Pt     1      10.000         10.015                        -0.015
     13       Pt     1      10.000         10.016                        -0.016
     14       Pt     1      10.000         10.016                        -0.016
     15       Pt     1      10.000         10.015                        -0.015
     16       Pt     1      10.000         10.016                        -0.016
     17       Pt     1      10.000          9.987                         0.013
     18       Pt     1      10.000          9.987                         0.013
     19       Pt     1      10.000          9.987                         0.013
     20       Pt     1      10.000          9.987                         0.013
     21       Pt     1      10.000          9.988                         0.012
     22       Pt     1      10.000          9.987                         0.013
     23       Pt     1      10.000          9.987                         0.013
     24       Pt     1      10.000          9.988                         0.012
     25       Pt     1      10.000          9.987                         0.013
     26       Pt     1      10.000          9.987                         0.013
     27       Pt     1      10.000          9.987                         0.013
     28       Pt     1      10.000          9.987                         0.013
     29       Pt     1      10.000          9.987                         0.013
     30       Pt     1      10.000          9.988                         0.012
     31       Pt     1      10.000          9.988                         0.012
     32       Pt     1      10.000          9.987                         0.013
     33       Pt     1      10.000          9.998                         0.002
     34       Pt     1      10.000          9.998                         0.002
     35       Pt     1      10.000          9.998                         0.002
     36       Pt     1      10.000          9.998                         0.002
     37       Pt     1      10.000          9.999                         0.001
     38       Pt     1      10.000          9.998                         0.002
     39       Pt     1      10.000          9.998                         0.002
     40       Pt     1      10.000          9.999                         0.001
     41       Pt     1      10.000          9.998                         0.002
     42       Pt     1      10.000          9.998                         0.002
     43       Pt     1      10.000          9.999                         0.001
     44       Pt     1      10.000          9.998                         0.002
     45       Pt     1      10.000          9.998                         0.002
     46       Pt     1      10.000          9.998                         0.002
     47       Pt     1      10.000          9.998                         0.002
     48       Pt     1      10.000          9.998                         0.002
     49       Pt     1      10.000          9.998                         0.002
     50       Pt     1      10.000          9.997                         0.003
     51       Pt     1      10.000          9.998                         0.002
     52       Pt     1      10.000          9.998                         0.002
     53       Pt     1      10.000          9.998                         0.002
     54       Pt     1      10.000          9.999                         0.001
     55       Pt     1      10.000          9.997                         0.003
     56       Pt     1      10.000          9.999                         0.001
     57       Pt     1      10.000          9.998                         0.002
     58       Pt     1      10.000          9.997                         0.003
     59       Pt     1      10.000          9.998                         0.002
     60       Pt     1      10.000          9.998                         0.002
     61       Pt     1      10.000          9.998                         0.002
     62       Pt     1      10.000          9.998                         0.002
     63       Pt     1      10.000          9.999                         0.001
     64       Pt     1      10.000          9.998                         0.002
     65       Pt     1      10.000          9.987                         0.013
     66       Pt     1      10.000          9.988                         0.012
     67       Pt     1      10.000          9.988                         0.012
     68       Pt     1      10.000          9.988                         0.012
     69       Pt     1      10.000          9.988                         0.012
     70       Pt     1      10.000          9.990                         0.010
     71       Pt     1      10.000          9.990                         0.010
     72       Pt     1      10.000          9.987                         0.013
     73       Pt     1      10.000          9.987                         0.013
     74       Pt     1      10.000          9.988                         0.012
     75       Pt     1      10.000          9.990                         0.010
     76       Pt     1      10.000          9.987                         0.013
     77       Pt     1      10.000          9.988                         0.012
     78       Pt     1      10.000          9.988                         0.012
     79       Pt     1      10.000          9.987                         0.013
     80       Pt     1      10.000          9.988                         0.012
     81       Pt     1      10.000         10.019                        -0.019
     82       Pt     1      10.000         10.023                        -0.023
     83       Pt     1      10.000         10.026                        -0.026
     84       Pt     1      10.000         10.019                        -0.019
     85       Pt     1      10.000         10.024                        -0.024
     86       Pt     1      10.000         10.098                        -0.098
     87       Pt     1      10.000         10.044                        -0.044
     88       Pt     1      10.000         10.019                        -0.019
     89       Pt     1      10.000         10.022                        -0.022
     90       Pt     1      10.000         10.087                        -0.087
     91       Pt     1      10.000         10.160                        -0.160
     92       Pt     1      10.000         10.027                        -0.027
     93       Pt     1      10.000         10.024                        -0.024
     94       Pt     1      10.000         10.098                        -0.098
     95       Pt     1      10.000         10.045                        -0.045
     96       Pt     1      10.000         10.019                        -0.019
     97       O      2       6.000          6.612                        -0.612
     98       H      3       1.000          0.423                         0.577
     99       H      3       1.000          0.423                         0.577

  Total Charge                                                            0.000
 !-----------------------------------------------------------------------------!

 LOCALIZE| The spread relative to a set of orbitals is computed
 LOCALIZE| Orbitals to be localized: All orbitals
 LOCALIZE| If fractional occupation, fully occupied MOs are those 
           within occupation tolerance of       0.00000001
 LOCALIZE| Spread defined by the Berry phase operator 
 LOCALIZE| Optimal unitary transformation generated by Jacobi algorithm

 LOCALIZATION|    The orbitals to be localized are read from localization restart file.

 LOCALIZATION| Computing localization properties for OCCUPIED ORBITALS. Spin:  1
    Spread Functional     sum_in -w_i ln(|z_in|^2)    sum_in w_i(1-|z_in|^2)
                          sum_in w_i(1-|z_in|^2)/n
    Initial Spread (Berry) :              6009.1149744848     5038.7616189001
                                            11.5303469540
    Localization by iterative distributed Jacobi rotation
                      Iteration            Functional         Tolerance   Time 
    Localization  for spin   1 converged in      1 iterations
    Spread Functional     sum_in -w_i ln(|z_in|^2)    sum_in w_i(1-|z_in|^2)
                          sum_in w_i(1-|z_in|^2)/n
    Total Spread (Berry) :                6009.1148683411     5038.7616188582
                                            11.5303469539

 LOCALIZATION| Write restart file for the localized MOS : cp2k-LOC_HOMO-1_0.wfn


 ENERGY| Total FORCE_EVAL ( QS ) energy [a.u.]:            -2538.068087183683019

 ATOMIC FORCES in [a.u.]

 # Atom   Kind   Element          X              Y              Z
      1      1      Pt          0.00027725    -0.00135631    -0.01299602
      2      1      Pt          0.00003604    -0.00134728    -0.01264217
      3      1      Pt         -0.00010890    -0.00136502    -0.01244342
      4      1      Pt         -0.00016589    -0.00137333    -0.01291770
      5      1      Pt          0.00002295    -0.00173634    -0.01263972
      6      1      Pt         -0.00009760    -0.00118583    -0.01286418
      7      1      Pt         -0.00005135    -0.00137554    -0.01287007
      8      1      Pt          0.00010510    -0.00109371    -0.01295481
      9      1      Pt          0.00058247    -0.00109227    -0.01271152
     10      1      Pt         -0.00008043    -0.00110083    -0.01269995
     11      1      Pt         -0.00006682    -0.00124009    -0.01275482
     12      1      Pt         -0.00053185    -0.00103427    -0.01276713
     13      1      Pt          0.00006691    -0.00137969    -0.01241806
     14      1      Pt         -0.00032541    -0.00126243    -0.01304674
     15      1      Pt         -0.00013283    -0.00143467    -0.01273443
     16      1      Pt          0.00033163    -0.00129239    -0.01301913
     17      1      Pt         -0.00002831     0.00007056     0.00922050
     18      1      Pt         -0.00011999    -0.00033435     0.01009538
     19      1      Pt         -0.00000181    -0.00056329     0.00964818
     20      1      Pt          0.00011158    -0.00028455     0.01011917
     21      1      Pt          0.00004745    -0.00063101     0.00992545
     22      1      Pt          0.00023727    -0.00046443     0.00971785
     23      1      Pt         -0.00010826    -0.00050503     0.00967014
     24      1      Pt         -0.00007251    -0.00073433     0.01001771
     25      1      Pt         -0.00005605    -0.00070554     0.00995363
     26      1      Pt          0.00040893    -0.00045600     0.00966030
     27      1      Pt          0.00011538    -0.00058296     0.01003590
     28      1      Pt         -0.00032766    -0.00043683     0.00968372
     29      1      Pt          0.00014876    -0.00014776     0.00982934
     30      1      Pt          0.00005936    -0.00048400     0.00978892
     31      1      Pt          0.00002771    -0.00054715     0.00982778
     32      1      Pt         -0.00020150    -0.00020951     0.00986370
[...]
 flops     5 x    21 x    20              4687200       0.0%    100.0%      0.0%     
 flops    20 x    21 x    13              5176080       0.0%    100.0%      0.0%     
 flops    13 x    21 x    20              5176080       0.0%    100.0%      0.0%     
 flops     5 x    20 x    96             22963200       0.0%    100.0%      0.0%     
 flops    20 x     5 x    96             23462400       0.0%    100.0%      0.0%     
 flops    20 x    13 x    96             25309440       0.0%    100.0%      0.0%     
 flops    13 x    20 x    96             25958400       0.0%    100.0%      0.0%     
 flops     5 x    20 x   120             28704000       0.0%    100.0%      0.0%     
 flops    20 x     5 x   120             29328000       0.0%    100.0%      0.0%     
 flops    20 x    13 x   120             31636800       0.0%    100.0%      0.0%     
 flops    13 x    20 x   120             32448000       0.0%    100.0%      0.0%     
 flops    20 x    32 x     5            128563200       0.0%    100.0%      0.0%     
 flops     5 x    32 x    20            128563200       0.0%    100.0%      0.0%     
 flops    20 x    32 x    13            141972480       0.0%    100.0%      0.0%     
 flops    13 x    32 x    20            141972480       0.0%    100.0%      0.0%     
 flops    20 x    24 x    20            176947200       0.0%    100.0%      0.0%     
 flops     5 x    20 x   128            183705600       0.0%    100.0%      0.0%     
 flops    20 x     5 x   128            187699200       0.0%    100.0%      0.0%     
 flops    20 x    13 x   128            202475520       0.0%    100.0%      0.0%     
 flops    13 x    20 x   128            207667200       0.0%    100.0%      0.0%     
 flops    20 x    21 x    20            928972800       0.0%    100.0%      0.0%     
 flops    20 x    20 x    96           4648550400       0.0%    100.0%      0.0%     
 flops    20 x    20 x   120           5810688000       0.0%    100.0%      0.0%     
 flops    20 x    32 x    20          25480396800       0.0%    100.0%      0.0%     
 flops    20 x    20 x   128          37188403200       0.0%    100.0%      0.0%     
 flops inhomo. stacks                           0       0.0%      0.0%      0.0%
 flops total                        75.813255E+09       0.0%    100.0%      0.0%
 flops max/rank                      1.367279E+09       0.0%    100.0%      0.0%
 matmuls inhomo. stacks                         0       0.0%      0.0%      0.0%
 matmuls total                            1634233       0.0%    100.0%      0.0%
 number of processed stacks                 19895       0.0%    100.0%      0.0%
 average stack size                                     0.0      82.1       0.0
 marketing flops                    78.072160E+09
 -------------------------------------------------------------------------------
 # multiplications                             20
 max memory usage/rank             845.705216E+06
 # max total images/rank                        1
 # max 3D layers                                1
 # MPI messages exchanged                   17920
 MPI messages size (bytes):
  total size                         4.652067E+09
  min size                          61.440000E+03
  max size                         503.752000E+03
  average size                     259.601969E+03
 MPI breakdown and total messages size (bytes):
             size <=      128                   0                        0
       128 < size <=     8192                   0                        0
      8192 < size <=    32768                   0                        0
     32768 < size <=   131072                2688                285294576
    131072 < size <=  4194304               15232               4366772872
   4194304 < size <= 16777216                   0                        0
  16777216 < size                               0                        0
 -------------------------------------------------------------------------------
 -                                                                             -
 -                      DBCSR MESSAGE PASSING PERFORMANCE                      -
 -                                                                             -
 -------------------------------------------------------------------------------
 ROUTINE             CALLS      AVE VOLUME [Bytes]
 MP_Bcast               55                     12.
 MP_Allreduce          237                     19.
 MP_Alltoall           499                 121607.
 MP_ISend              640                 116292.
 MP_IRecv              640                 113796.
 -------------------------------------------------------------------------------

 -------------------------------------------------------------------------------
 -                                                                             -
 -                                DBM STATISTICS                               -
 -                                                                             -
 -------------------------------------------------------------------------------
    M  x    N  x    K                                          COUNT     PERCENT
 -------------------------------------------------------------------------------

 -------------------------------------------------------------------------------
 -                                                                             -
 -                                GRID STATISTICS                              -
 -                                                                             -
 -------------------------------------------------------------------------------
 LP    KERNEL             BACKEND                              COUNT     PERCENT
 4     collocate ortho    CPU                                1873956      48.69%
 4     integrate ortho    CPU                                1720812      44.71%
 5     integrate ortho    CPU                                 156163       4.06%
 3     collocate ortho    CPU                                  36228       0.94%
 3     integrate ortho    CPU                                  33320       0.87%
 0     collocate general  CPU                                  12672       0.33%
 0     integrate general  CPU                                   6336       0.16%
 1     integrate general  CPU                                   6336       0.16%
 2     collocate ortho    CPU                                   1817       0.05%
 2     integrate ortho    CPU                                   1221       0.03%
 1     collocate ortho    CPU                                     10       0.00%
 -------------------------------------------------------------------------------

 MEMORY| Estimated peak process memory [MiB]                                 952

 -------------------------------------------------------------------------------
 ----                             MULTIGRID INFO                            ----
 -------------------------------------------------------------------------------
 count for grid        1:         504571          cutoff [a.u.]          200.00
 count for grid        2:         502074          cutoff [a.u.]           66.67
 count for grid        3:         281527          cutoff [a.u.]           22.22
 count for grid        4:         175651          cutoff [a.u.]            7.41
 total gridlevel count  :        1463823

 -------------------------------------------------------------------------------
 -                                                                             -
 -                         MESSAGE PASSING PERFORMANCE                         -
 -                                                                             -
 -------------------------------------------------------------------------------

 ROUTINE             CALLS      AVE VOLUME [Bytes]
 MP_Group                4
 MP_Bcast             2558                 230683.
 MP_Allreduce         1055                  10027.
 MP_Sync                17
 MP_Alltoall           312                4270517.
 MP_SendRecv          2016                  27314.
 MP_ISendRecv         1512                  26400.
 MP_Wait              5907
 MP_ISend             4046                  86558.
 MP_IRecv             4046                  86624.
 MP_Write_All            4                 493800.
 -------------------------------------------------------------------------------


 -------------------------------------------------------------------------------
 -                                                                             -
 -                           R E F E R E N C E S                               -
 -                                                                             -
 -------------------------------------------------------------------------------
 
 CP2K version 2024.3, the CP2K developers group (2024).
 CP2K is freely available from https://www.cp2k.org/ .
 
 T. D. Kuehne, M. Iannuzzi, M. Del Ben, V. V. Rybkin, P. Seewald, F. Stein, T. 
 Laino, R. Z. Khaliullin, O. Schuett, F. Schiffmann, D. Golze, J. Wilhelm, S. 
 Chulkov, M. H. Bani-Hashemian, V. Weber, U. Borstnik, M. Taillefumier, A. S. 
 Jakobovits, A. Lazzaro, H. Pabst, T. Mueller, R. Schade, M. Guidon, S. 
 Andermatt, N. Holmberg, G. K. Schenter, A. Hehn, A. Bussy, F. Belleflamme, G. 
 Tabacchi, A. Gloess, M. Lass, I. Bethune, C. J. Mundy, C. Plessl, M. Watkins, 
 J. VandeVondele, M. Krack, J. Hutter.
 J. Chem. Phys. 152, 194103 (2020).
 CP2K: An electronic structure and molecular dynamics software package - 
 Quickstep: Efficient and accurate electronic structure calculations.
 https://doi.org/10.1063/5.0007045

 L. Goerigk, A. Hansen, C. Bauer, S. Ehrlich, A. Najibi, S. Grimme.
 Phys. Chem. Chem. Phys. 19, 32184-32215 (2017).
 A look at the density functional theory zoo with the advanced GMTKN55 database 
 for general main group thermochemistry, kinetics and noncovalent interactions.
 https://doi.org/10.1039/C7CP04913G

 O. Schuett, P. Messmer, J. Hutter, J. VandeVondele.
 Electronic Structure Calculations on Graphics Processing Units, 173-190 (2016).
 GPU-Accelerated Sparse Matrix-Matrix Multiplication for Linear Scaling Density 
 Functional Theory.
 https://doi.org/10.1002/9781118670712.ch8

 A. Heinecke, G. Henry, M. Hutchinson, H. Pabst.
 Proceedings of Intl. Supercomputing Conference, 981-991 (2016).
 LIBXSMM: Accelerating Small Matrix Multiplications by Runtime Code Generation.
 https://doi.org/10.1109/SC.2016.83

 J. Hutter, M. Iannuzzi, F. Schiffmann, J. VandeVondele.
 WIREs Comput Mol Sci. 4, 15-25 (2014).
 CP2K: atomistic simulations of condensed matter systems.
 https://doi.org/10.1002/wcms.1159

 U. Borstnik, J. VandeVondele, V. Weber, J. Hutter.
 Parallel Comput. 40, 47-58 (2014).
 Sparse matrix multiplication: The distributed block-compressed sparse row 
 library.
 https://doi.org/10.1016/j.parco.2014.03.012

 A. Marek, V. Blum, R. Johanni, V. Havu, B. Lang, T. Auckenthaler, A. Heinecke, 
 H. Bungartz, H. Lederer.
 J. Phys. Condens. Matter 26, 213201 (2014).
 The ELPA library: scalable parallel eigenvalue solutions for electronic 
 structure theory and computational science.
 https://doi.org/10.1088/0953-8984/26/21/213201

 S. Grimme, S. Ehrlich, L. Goerigk.
 J. Comput. Chem. 32, 1456 (2011).
 Effect of the damping function in dispersion corrected density functional 
 theory.
 https://doi.org/10.1002/jcc.21759

 S. Grimme, J. Antony, S. Ehrlich, H. Krieg.
 J. Chem. Phys. 132, 154104 (2010).
 A consistent and accurate ab initio parametrization of density functional 
 dispersion correction (DFT-D) for the 94 elements H-Pu.
 https://doi.org/10.1063/1.3382344

 J. VandeVondele, J. Hutter.
 J. Chem. Phys. 127, 114105 (2007).
 Gaussian basis sets for accurate calculations on molecular systems in gas and 
 condensed phases.
 https://doi.org/10.1063/1.2770708

 J. VandeVondele, M. Krack, F. Mohamed, M. Parrinello, T. Chassaing, J. Hutter.
 Comput. Phys. Commun. 167, 103-128 (2005).
 QUICKSTEP: Fast and accurate density functional calculations using a mixed 
 Gaussian and plane waves approach.
 https://doi.org/10.1016/j.cpc.2004.12.014

 M. Krack.
 Theor. Chem. Acc. 114, 145-152 (2005).
 Pseudopotentials for H to Kr optimized for gradient-corrected 
 exchange-correlation functionals.
 https://doi.org/10.1007/s00214-005-0655-y

 M. Frigo, S. G. Johnson.
 Proc. IEEE 93, 216-231 (2005).
 The design and implementation of FFTW3.
 https://doi.org/10.1109/JPROC.2004.840301

 C. Hartwigsen, S. Goedecker, J. Hutter.
 Phys. Rev. B 58, 3641-3662 (1998).
 Relativistic separable dual-space Gaussian pseudopotentials from H to Rn.
 https://doi.org/10.1103/PhysRevB.58.3641

 G. Lippert, J. Hutter, M. Parrinello.
 Mol. Phys. 92, 477-487 (1997).
 A hybrid Gaussian and plane wave density functional scheme.
 https://doi.org/10.1080/002689797170220

 S. Goedecker, M. Teter, J. Hutter.
 Phys. Rev. B 54, 1703-1710 (1996).
 Separable dual-space Gaussian pseudopotentials.
 https://doi.org/10.1103/PhysRevB.54.1703

 J. P. Perdew, K. Burke, M. Ernzerhof.
 Phys. Rev. Lett. 77, 3865-3868 (1996).
 Generalized gradient approximation made simple.
 https://doi.org/10.1103/PhysRevLett.77.3865


 -------------------------------------------------------------------------------
 -                                                                             -
 -                                T I M I N G                                  -
 -                                                                             -
 -------------------------------------------------------------------------------
 SUBROUTINE                       CALLS  ASD         SELF TIME        TOTAL TIME
                                MAXIMUM       AVERAGE  MAXIMUM  AVERAGE  MAXIMUM
 CP2K                                 1  1.0    0.022    0.033   19.562   19.563
 qs_forces                            1  2.0    0.003    0.004   18.076   18.077
 qs_energies                          1  3.0    0.000    0.000   14.352   14.353
 scf_env_do_scf                       1  4.0    0.000    0.000   10.791   10.808
 scf_env_do_scf_inner_loop           11  5.0    0.002    0.002   10.789   10.807
 rebuild_ks_matrix                   12  6.8    0.000    0.001    6.024    6.026
 qs_ks_build_kohn_sham_matrix        12  7.8    0.002    0.003    6.024    6.026
 qs_ks_update_qs_env                 11  6.0    0.000    0.000    5.300    5.302
 sum_up_and_integrate                12  8.8    0.000    0.000    3.741    3.747
 integrate_v_rspace                  12  9.8    0.000    0.000    3.733    3.741
 qs_rho_update_rho_low               12  6.0    0.000    0.000    3.548    3.549
 calculate_rho_elec                  12  7.0    0.010    0.014    3.547    3.549
 grid_integrate_task_list            12 10.8    1.037    3.041    1.037    3.041
 build_core_hamiltonian_matrix_       1  3.0    0.000    0.000    2.771    2.991
 grid_collocate_task_list            12  8.0    1.096    2.891    1.096    2.891
 density_rs2pw                       12  8.0    0.001    0.001    2.395    2.759
 build_core_ppnl_forces               1  4.0    2.542    2.746    2.542    2.746
 transfer_rs2pw                      54  8.9    0.000    0.000    2.115    2.615
 mp_waitany                        4046 12.1    2.037    2.544    2.037    2.544
 transfer_rs2pw_200                  15  9.8    0.075    0.093    2.017    2.517
 mp_alltoall_d11v                   238 10.7    2.075    2.455    2.075    2.455
 rs_gather_matrices                  12 10.8    0.002    0.003    2.025    2.405
 fft_wrap_pw1pw2                    221 10.8    0.003    0.003    2.179    2.214
 fft_wrap_pw1pw2_200                146 12.1    0.097    0.101    2.072    2.102
 qs_vxc_create                       12  8.8    0.000    0.001    1.858    1.870
 xc_vxc_pw_create                    12  9.8    0.037    0.045    1.858    1.870
 qs_scf_new_mos                      11  6.0    0.000    0.000    1.708    1.712
 fft3d_ps                           221 12.8    0.835    0.988    1.638    1.681
 eigensolver                         11  7.0    0.001    0.001    1.550    1.556
 scf_post_calculation_gpw             1  4.0    0.000    0.000    1.350    1.351
 xc_pw_derive                        72 11.8    0.001    0.001    1.281    1.312
 init_scf_run                         1  4.0    0.000    0.001    1.232    1.233
 mp_sum_d                           538  2.7    0.316    1.097    0.316    1.097
 cp_fm_diag_elpa                     12  8.1    0.000    0.000    1.040    1.065
 cp_fm_diag_elpa_base                12  9.1    1.013    1.020    1.026    1.028
 xc_rho_set_and_dset_create          12 10.8    0.023    0.025    0.915    1.005
 calculate_ecore_overlap              2  4.0    0.000    0.001    0.223    0.997
 scf_env_initial_rho_setup            1  5.0    0.000    0.000    0.990    0.991
 qs_energies_init_hamiltonians        1  4.0    0.001    0.001    0.954    0.955
 qs_init_subsys                       1  2.0    0.003    0.003    0.908    0.908
 xc_pw_divergence                    12 10.8    0.000    0.001    0.867    0.887
 build_core_hamiltonian_matrix        1  5.0    0.000    0.000    0.772    0.835
 mp_bcast_i_src                      60  7.1    0.758    0.771    0.758    0.771
 qs_dispersion_pairpot_init           1  3.0    0.016    0.759    0.761    0.762
 build_core_ppnl                      1  6.0    0.685    0.742    0.685    0.742
 qs_ks_update_qs_env_forces           1  3.0    0.000    0.000    0.728    0.729
 potential_pw2rs                     12 10.8    0.001    0.001    0.668    0.675
 mp_bcast_dv_src                      5  6.8    0.650    0.660    0.650    0.660
 calculate_first_density_matrix       1  6.0    0.000    0.001    0.652    0.653
 mp_alltoall_z22v                   221 14.8    0.574    0.641    0.574    0.641
 cp_fm_triangular_multiply           33  8.0    0.589    0.612    0.589    0.612
 write_available_results              1  5.0    0.000    0.000    0.562    0.565
 write_mo_free_results                1  6.0    0.102    0.121    0.561    0.565
 transfer_pw2rs                      50 11.6    0.000    0.000    0.500    0.503
 create_qs_kind_set                   1  2.0    0.000    0.000    0.495    0.497
 read_qs_kind                         3  3.0    0.026    0.119    0.495    0.496
 read_mo_set_from_restart             1  7.0    0.010    0.486    0.492    0.492
 parser_read_line                  9301  4.0    0.003    0.003    0.480    0.484
 gspace_mixing                       10  6.0    0.009    0.012    0.481    0.482
 parser_read_line_low                13  5.2    0.011    0.357    0.477    0.481
 broadcast_input_information         13  6.2    0.000    0.000    0.466    0.476
 mp_bcast_dm_src                   1968  7.5    0.448    0.455    0.448    0.455
 x_to_yz                             96 13.8    0.132    0.193    0.401    0.420
 yz_to_x                             75 14.2    0.069    0.080    0.371    0.418
 get_localization_info                1  5.0    0.000    0.000    0.402    0.410
 qs_loc_driver                        1  6.0    0.000    0.000    0.402    0.410
 pw_to_cube                           4  7.2    0.129    0.269    0.377    0.404
 -------------------------------------------------------------------------------

 The number of warnings for this run is : 0
 
 -------------------------------------------------------------------------------
  **** **** ******  **  PROGRAM ENDED AT                 2024-11-02 23:18:46.976
 ***** ** ***  *** **   PROGRAM RAN ON                                     cu025
 **    ****   ******    PROGRAM RAN BY                                     jxzhu
 ***** **    ** ** **   PROGRAM PROCESS ID                               1247768
  **** **  *******  **  PROGRAM STOPPED IN /public/home/jxzhu/workspace/2022_lei
                                           den/08.Pt_111/01.elec_eps/06.alpha-z_
                                           test/mo/water_a
