 DBCSR| CPU Multiplication driver                                           XSMM
 DBCSR| Multrec recursion limit                                              512
 DBCSR| Multiplication stack size                                           1000
 DBCSR| Maximum elements for images                                    UNLIMITED
 DBCSR| Multiplicative factor virtual images                                   1
 DBCSR| Use multiplication densification                                       T
 DBCSR| Multiplication size stacks                                             3
 DBCSR| Use memory pool for CPU allocation                                     F
 DBCSR| Number of 3D layers                                               SINGLE
 DBCSR| Use MPI memory allocation                                              F
 DBCSR| Use RMA algorithm                                                      F
 DBCSR| Use Communication thread                                               T
 DBCSR| Communication thread load                                             87
 DBCSR| MPI: My node id                                                        0
 DBCSR| MPI: Number of nodes                                                  64
 DBCSR| OMP: Current number of threads                                         1
 DBCSR| OMP: Max number of threads                                             1
 DBCSR| Split modifier for TAS multiplication algorithm                  1.0E+00


  **** **** ******  **  PROGRAM STARTED AT               2023-11-26 17:23:37.643
 ***** ** ***  *** **   PROGRAM STARTED ON                                 cu054
 **    ****   ******    PROGRAM STARTED BY                                 jxzhu
 ***** **    ** ** **   PROGRAM PROCESS ID                                 44491
  **** **  *******  **  PROGRAM STARTED IN /public/home/jxzhu/tmp_calc/af2075565
                                           805657d94fa4669dad6f4b174b0a4fb/calc/
                                           001000.000/pbc

 CP2K| version string:                                       CP2K version 2022.1
 CP2K| source code revision number:                                  git:2caeb6f
 CP2K| cp2kflags: omp libint fftw3 libxc elpa parallel mpi3 scalapack cosma xsmm
 CP2K|             plumed2 spglib mkl sirius libvori libbqb
 CP2K| is freely available from                            https://www.cp2k.org/
 CP2K| Program compiled at                           Mon Jul 3 17:37:06 CST 2023
 CP2K| Program compiled on                                                 mu003
 CP2K| Program compiled for                                                local
 CP2K| Data directory path                             /public/home/jxzhu/basis/
 CP2K| Input file name                                                 input.inp
 
 GLOBAL| Force Environment number                                              1
 GLOBAL| Basis set file name                                        BASIS_MOLOPT
 GLOBAL| Potential file name                                      GTH_POTENTIALS
 GLOBAL| MM Potential file name                                     MM_POTENTIAL
 GLOBAL| Coordinate file name                                          coord.xyz
 GLOBAL| Method name                                                        CP2K
 GLOBAL| Project name                                                       cp2k
 GLOBAL| Run type                                                   ENERGY_FORCE
 GLOBAL| FFT library                                                       FFTW3
 GLOBAL| Diagonalization library                                            ELPA
 GLOBAL| Minimum number of eigenvectors for ELPA usage                        16
 GLOBAL| Orthonormality check for eigenvectors                          DISABLED
 GLOBAL| Matrix multiplication library                                     COSMA
 GLOBAL| All-to-all communication in single precision                          F
 GLOBAL| FFTs using library dependent lengths                                  F
 GLOBAL| Grid backend                                                       AUTO
 GLOBAL| Global print level                                               MEDIUM
 GLOBAL| MPI I/O enabled                                                       T
 GLOBAL| Total number of message passing processes                            64
 GLOBAL| Number of threads for this process                                    1
 GLOBAL| This output is from process                                           0
 GLOBAL| Stack size for threads created by OpenMP (OMP_STACKSIZE)        default
 GLOBAL| CPU model name                 Intel(R) Xeon(R) Gold 6338 CPU @ 2.00GHz
 GLOBAL| CPUID                                                              1003

 MEMORY| system memory details [Kb]
 MEMORY|                        rank 0           min           max       average
 MEMORY| MemTotal            263619172     263619172     263619172     263619172
 MEMORY| MemFree             212488544     212488544     212493504     212489357
 MEMORY| Buffers                  3320          3320          3320          3320
 MEMORY| Cached                2505660       2505660       2505660       2505660
 MEMORY| Slab                  1582124       1582124       1582124       1582124
 MEMORY| SReclaimable           234944        234944        234944        234944
 MEMORY| MemLikelyFree       215232468     215232468     215237428     215233281


 *** Fundamental physical constants (SI units) ***

 *** Literature: B. J. Mohr and B. N. Taylor,
 ***             CODATA recommended values of the fundamental physical
 ***             constants: 2006, Web Version 5.1
 ***             http://physics.nist.gov/constants

 Speed of light in vacuum [m/s]                             2.99792458000000E+08
 Magnetic constant or permeability of vacuum [N/A**2]       1.25663706143592E-06
 Electric constant or permittivity of vacuum [F/m]          8.85418781762039E-12
 Planck constant (h) [J*s]                                  6.62606896000000E-34
 Planck constant (h-bar) [J*s]                              1.05457162825177E-34
 Elementary charge [C]                                      1.60217648700000E-19
 Electron mass [kg]                                         9.10938215000000E-31
 Electron g factor [ ]                                     -2.00231930436220E+00
 Proton mass [kg]                                           1.67262163700000E-27
 Fine-structure constant                                    7.29735253760000E-03
 Rydberg constant [1/m]                                     1.09737315685270E+07
 Avogadro constant [1/mol]                                  6.02214179000000E+23
 Boltzmann constant [J/K]                                   1.38065040000000E-23
 Atomic mass unit [kg]                                      1.66053878200000E-27
 Bohr radius [m]                                            5.29177208590000E-11

 *** Conversion factors ***

 [u] -> [a.u.]                                              1.82288848426455E+03
 [Angstrom] -> [Bohr] = [a.u.]                              1.88972613288564E+00
 [a.u.] = [Bohr] -> [Angstrom]                              5.29177208590000E-01
 [a.u.] -> [s]                                              2.41888432650478E-17
 [a.u.] -> [fs]                                             2.41888432650478E-02
 [a.u.] -> [J]                                              4.35974393937059E-18
 [a.u.] -> [N]                                              8.23872205491840E-08
 [a.u.] -> [K]                                              3.15774647902944E+05
 [a.u.] -> [kJ/mol]                                         2.62549961709828E+03
 [a.u.] -> [kcal/mol]                                       6.27509468713739E+02
 [a.u.] -> [Pa]                                             2.94210107994716E+13
 [a.u.] -> [bar]                                            2.94210107994716E+08
 [a.u.] -> [atm]                                            2.90362800883016E+08
 [a.u.] -> [eV]                                             2.72113838565563E+01
 [a.u.] -> [Hz]                                             6.57968392072181E+15
 [a.u.] -> [1/cm] (wave numbers)                            2.19474631370540E+05
 [a.u./Bohr**2] -> [1/cm]                                   5.14048714338585E+03
 

 CELL_TOP| Volume [angstrom^3]:                                     10221.806009
 CELL_TOP| Vector a [angstrom    16.869     0.000     0.000   |a| =    16.869000
 CELL_TOP| Vector b [angstrom    -8.434    14.609     0.000   |b| =    16.869015
 CELL_TOP| Vector c [angstrom     0.000     0.000    41.478   |c| =    41.478000
 CELL_TOP| Angle (b,c), alpha [degree]:                                90.000000
 CELL_TOP| Angle (a,c), beta  [degree]:                                90.000000
 CELL_TOP| Angle (a,b), gamma [degree]:                               119.999970
 CELL_TOP| Numerically orthorhombic:                                          NO
 
 GENERATE|  Preliminary Number of Bonds generated:                             0
 GENERATE|  Achieved consistency in connectivity generation.

 CELL| Volume [angstrom^3]:                                         10221.806009
 CELL| Vector a [angstrom]:      16.869     0.000     0.000   |a| =    16.869000
 CELL| Vector b [angstrom]:      -8.434    14.609     0.000   |b| =    16.869015
 CELL| Vector c [angstrom]:       0.000     0.000    41.478   |c| =    41.478000
 CELL| Angle (b,c), alpha [degree]:                                    90.000000
 CELL| Angle (a,c), beta  [degree]:                                    90.000000
 CELL| Angle (a,b), gamma [degree]:                                   119.999970
 CELL| Numerically orthorhombic:                                              NO

 CELL_REF| Volume [angstrom^3]:                                     10221.806009
 CELL_REF| Vector a [angstrom    16.869     0.000     0.000   |a| =    16.869000
 CELL_REF| Vector b [angstrom    -8.434    14.609     0.000   |b| =    16.869015
 CELL_REF| Vector c [angstrom     0.000     0.000    41.478   |c| =    41.478000
 CELL_REF| Angle (b,c), alpha [degree]:                                90.000000
 CELL_REF| Angle (a,c), beta  [degree]:                                90.000000
 CELL_REF| Angle (a,b), gamma [degree]:                               119.999970
 CELL_REF| Numerically orthorhombic:                                          NO

 *******************************************************************************
 *******************************************************************************
 **                                                                           **
 **     #####                         ##              ##                      **
 **    ##   ##            ##          ##              ##                      **
 **   ##     ##                       ##            ######                    **
 **   ##     ##  ##   ##  ##   #####  ##  ##   ####   ##    #####    #####    **
 **   ##     ##  ##   ##  ##  ##      ## ##   ##      ##   ##   ##  ##   ##   **
 **   ##  ## ##  ##   ##  ##  ##      ####     ###    ##   ######   ######    **
 **    ##  ###   ##   ##  ##  ##      ## ##      ##   ##   ##       ##        **
 **     #######   #####   ##   #####  ##  ##  ####    ##    #####   ##        **
 **           ##                                                    ##        **
 **                                                                           **
 **                                                ... make the atoms dance   **
 **                                                                           **
 **            Copyright (C) by CP2K developers group (2000-2022)             **
 **                      J. Chem. Phys. 152, 194103 (2020)                    **
 **                                                                           **
 *******************************************************************************

 DFT| Spin restricted Kohn-Sham (RKS) calculation                            RKS
 DFT| Multiplicity                                                             1
 DFT| Number of spin states                                                    1
 DFT| Charge                                                                   0
 DFT| Self-interaction correction (SIC)                                       NO
 DFT| Cutoffs: density                                              1.000000E-10
 DFT|          gradient                                             1.000000E-10
 DFT|          tau                                                  1.000000E-10
 DFT|          cutoff_smoothing_range                               0.000000E+00
 DFT| XC density smoothing                                                  NONE
 DFT| XC derivatives                                                          PW

 FUNCTIONAL| PBE:
 FUNCTIONAL| J.P.Perdew, K.Burke, M.Ernzerhof, Phys. Rev. Letter, vol. 77, n 18,
 FUNCTIONAL|  pp. 3865-3868, (1996){spin unpolarized}                           

 vdW POTENTIAL|                                                   Pair Potential
 vdW POTENTIAL|          DFT-D3 (Version 3.1)
 vdW POTENTIAL|          Potential Form: S. Grimme et al, JCP 132: 154104 (2010)
 vdW POTENTIAL|          Zero Damping
 vdW POTENTIAL|          Cutoff Radius [Bohr]:                             20.00
 vdW POTENTIAL|          s6 Scaling Factor:                               1.0000
 vdW POTENTIAL|          sr6 Scaling Factor:                              1.2170
 vdW POTENTIAL|          s8 Scaling Factor:                               0.7220
 vdW POTENTIAL|          Cutoff for CN calculation:                   0.1000E-05

 QS| Method:                                                                 GPW
 QS| Density plane wave grid type                        NON-SPHERICAL FULLSPACE
 QS| Number of grid levels:                                                    4
 QS| Density cutoff [a.u.]:                                                200.0
 QS| Multi grid cutoff [a.u.]: 1) grid level                               200.0
 QS|                           2) grid level                                66.7
 QS|                           3) grid level                                22.2
 QS|                           4) grid level                                 7.4
 QS| Grid level progression factor:                                          3.0
 QS| Relative density cutoff [a.u.]:                                        20.0
 QS| Interaction thresholds: eps_pgf_orb:                                3.2E-07
 QS|                         eps_filter_matrix:                          0.0E+00
 QS|                         eps_core_charge:                            1.0E-15
 QS|                         eps_rho_gspace:                             1.0E-13
 QS|                         eps_rho_rspace:                             1.0E-13
 QS|                         eps_gvg_rspace:                             3.2E-07
 QS|                         eps_ppl:                                    1.0E-02
 QS|                         eps_ppnl:                                   3.2E-09


 ATOMIC KIND INFORMATION

  1. Atomic kind: O                                     Number of atoms:     230

     Orbital Basis Set                                        DZVP-MOLOPT-SR-GTH

       Number of orbital shell sets:                                           1
       Number of orbital shells:                                               5
       Number of primitive Cartesian functions:                                5
       Number of Cartesian basis functions:                                   14
       Number of spherical basis functions:                                   13
       Norm type:                                                              2

       Normalised Cartesian orbitals:

                        Set   Shell   Orbital            Exponent    Coefficient

                          1       1    2s               10.389228       0.396646
                                                         3.849621       0.208811
                                                         1.388401      -0.301641
                                                         0.496955      -0.274061
                                                         0.162492      -0.033677

                          1       2    3s               10.389228       0.303673
                                                         3.849621       0.240943
                                                         1.388401      -0.313066
                                                         0.496955      -0.043055
                                                         0.162492       0.213991

                          1       3    3px              10.389228      -1.530415
                                                         3.849621      -1.371928
                                                         1.388401      -0.761951
                                                         0.496955      -0.253695
                                                         0.162492      -0.035541
                          1       3    3py              10.389228      -1.530415
                                                         3.849621      -1.371928
                                                         1.388401      -0.761951
                                                         0.496955      -0.253695
                                                         0.162492      -0.035541
                          1       3    3pz              10.389228      -1.530415
                                                         3.849621      -1.371928
                                                         1.388401      -0.761951
                                                         0.496955      -0.253695
                                                         0.162492      -0.035541

                          1       4    4px              10.389228      -0.565392
                                                         3.849621      -0.038231
                                                         1.388401      -0.382373
                                                         0.496955       0.179070
                                                         0.162492       0.122714
                          1       4    4py              10.389228      -0.565392
                                                         3.849621      -0.038231
                                                         1.388401      -0.382373
                                                         0.496955       0.179070
                                                         0.162492       0.122714
                          1       4    4pz              10.389228      -0.565392
                                                         3.849621      -0.038231
                                                         1.388401      -0.382373
                                                         0.496955       0.179070
                                                         0.162492       0.122714

                          1       5    4dx2             10.389228       1.867377
                                                         3.849621       0.670994
                                                         1.388401       1.353441
                                                         0.496955       0.273538
                                                         0.162492       0.006620
                          1       5    4dxy             10.389228       3.234392
                                                         3.849621       1.162195
                                                         1.388401       2.344229
                                                         0.496955       0.473781
                                                         0.162492       0.011466
                          1       5    4dxz             10.389228       3.234392
                                                         3.849621       1.162195
                                                         1.388401       2.344229
                                                         0.496955       0.473781
                                                         0.162492       0.011466
                          1       5    4dy2             10.389228       1.867377
                                                         3.849621       0.670994
                                                         1.388401       1.353441
                                                         0.496955       0.273538
                                                         0.162492       0.006620
                          1       5    4dyz             10.389228       3.234392
                                                         3.849621       1.162195
                                                         1.388401       2.344229
                                                         0.496955       0.473781
                                                         0.162492       0.011466
                          1       5    4dz2             10.389228       1.867377
                                                         3.849621       0.670994
                                                         1.388401       1.353441
                                                         0.496955       0.273538
                                                         0.162492       0.006620

       Atomic covalent radius [Angstrom]:                                  0.730

       Atomic van der Waals radius [Angstrom]:                             1.520

     GTH Potential information for                                    GTH-PBE-q6

       Description:                       Goedecker-Teter-Hutter pseudopotential
                                           Goedecker et al., PRB 54, 1703 (1996)
                                          Hartwigsen et al., PRB 58, 3641 (1998)
                                                      Krack, TCA 114, 145 (2005)

       Gaussian exponent of the core charge distribution:               8.360253
       Electronic configuration (s p d ...):                               2   4

       Parameters of the local part of the GTH pseudopotential:

                          rloc        C1          C2          C3          C4
                        0.244554  -16.667215    2.487311

       Parameters of the non-local part of the GTH pseudopotential:

                   l      r(l)      h(i,j,l)

                   0    0.220956   18.337458
                   1    0.211332

  2. Atomic kind: H                                     Number of atoms:     460

     Orbital Basis Set                                        DZVP-MOLOPT-SR-GTH

       Number of orbital shell sets:                                           1
       Number of orbital shells:                                               3
       Number of primitive Cartesian functions:                                5
       Number of Cartesian basis functions:                                    5
       Number of spherical basis functions:                                    5
       Norm type:                                                              2

       Normalised Cartesian orbitals:

                        Set   Shell   Orbital            Exponent    Coefficient

                          1       1    2s               10.068468      -0.133023
                                                         2.680223      -0.177618
                                                         0.791502      -0.258419
                                                         0.239116      -0.107525
                                                         0.082193      -0.014019

                          1       2    3s               10.068468       0.344673
                                                         2.680223       1.819821
                                                         0.791502      -0.999069
                                                         0.239116       0.017430
                                                         0.082193       0.082660

                          1       3    3px              10.068468       0.155326
                                                         2.680223       0.367157
                                                         0.791502       0.311480
                                                         0.239116       0.080105
                                                         0.082193       0.033440
                          1       3    3py              10.068468       0.155326
                                                         2.680223       0.367157
                                                         0.791502       0.311480
                                                         0.239116       0.080105
                                                         0.082193       0.033440
                          1       3    3pz              10.068468       0.155326
                                                         2.680223       0.367157
                                                         0.791502       0.311480
                                                         0.239116       0.080105
                                                         0.082193       0.033440

       Atomic covalent radius [Angstrom]:                                  0.320

       Atomic van der Waals radius [Angstrom]:                             1.090

     GTH Potential information for                                    GTH-PBE-q1

       Description:                       Goedecker-Teter-Hutter pseudopotential
                                           Goedecker et al., PRB 54, 1703 (1996)
                                          Hartwigsen et al., PRB 58, 3641 (1998)
                                                      Krack, TCA 114, 145 (2005)

       Gaussian exponent of the core charge distribution:              12.500000
       Electronic configuration (s p d ...):                                   1

       Parameters of the local part of the GTH pseudopotential:

                          rloc        C1          C2          C3          C4
                        0.200000   -4.178900    0.724463

  3. Atomic kind: Pt                                    Number of atoms:     216

     Orbital Basis Set                      DZVP-A5-Q10-323-MOL-T1-DERIVED_SET-1

       Number of orbital shell sets:                                           1
       Number of orbital shells:                                               6
       Number of primitive Cartesian functions:                                5
       Number of Cartesian basis functions:                                   23
       Number of spherical basis functions:                                   20
       Norm type:                                                              2

       Normalised Cartesian orbitals:

                        Set   Shell   Orbital            Exponent    Coefficient

                          1       1    2s                2.521825       0.177473
                                                         1.453920      -0.063399
                                                         0.614053      -0.407089
                                                         0.232656       0.262254
                                                         0.074788       0.047371

                          1       2    3s                2.521825      -0.049056
                                                         1.453920       0.044904
                                                         0.614053      -0.009756
                                                         0.232656      -0.144709
                                                         0.074788       0.144085

                          1       3    3px               2.521825      -0.317572
                                                         1.453920       0.534826
                                                         0.614053      -0.489458
                                                         0.232656       0.245631
                                                         0.074788       0.018221
                          1       3    3py               2.521825      -0.317572
                                                         1.453920       0.534826
                                                         0.614053      -0.489458
                                                         0.232656       0.245631
                                                         0.074788       0.018221
                          1       3    3pz               2.521825      -0.317572
                                                         1.453920       0.534826
                                                         0.614053      -0.489458
                                                         0.232656       0.245631
                                                         0.074788       0.018221

                          1       4    4dx2              2.521825       3.008522
                                                         1.453920      -1.224251
                                                         0.614053       0.225691
                                                         0.232656       0.125144
                                                         0.074788      -0.015348
                          1       4    4dxy              2.521825       5.210912
                                                         1.453920      -2.120465
                                                         0.614053       0.390909
                                                         0.232656       0.216756
                                                         0.074788      -0.026584
                          1       4    4dxz              2.521825       5.210912
                                                         1.453920      -2.120465
                                                         0.614053       0.390909
                                                         0.232656       0.216756
                                                         0.074788      -0.026584
                          1       4    4dy2              2.521825       3.008522
                                                         1.453920      -1.224251
                                                         0.614053       0.225691
                                                         0.232656       0.125144
                                                         0.074788      -0.015348
                          1       4    4dyz              2.521825       5.210912
                                                         1.453920      -2.120465
                                                         0.614053       0.390909
                                                         0.232656       0.216756
                                                         0.074788      -0.026584
                          1       4    4dz2              2.521825       3.008522
                                                         1.453920      -1.224251
                                                         0.614053       0.225691
                                                         0.232656       0.125144
                                                         0.074788      -0.015348

                          1       5    5dx2              2.521825       0.698026
                                                         1.453920      -1.511486
                                                         0.614053      -0.335394
                                                         0.232656      -0.025564
                                                         0.074788      -0.002699
                          1       5    5dxy              2.521825       1.209017
                                                         1.453920      -2.617970
                                                         0.614053      -0.580920
                                                         0.232656      -0.044277
                                                         0.074788      -0.004674
                          1       5    5dxz              2.521825       1.209017
                                                         1.453920      -2.617970
                                                         0.614053      -0.580920
                                                         0.232656      -0.044277
                                                         0.074788      -0.004674
                          1       5    5dy2              2.521825       0.698026
                                                         1.453920      -1.511486
                                                         0.614053      -0.335394
                                                         0.232656      -0.025564
                                                         0.074788      -0.002699
                          1       5    5dyz              2.521825       1.209017
                                                         1.453920      -2.617970
                                                         0.614053      -0.580920
                                                         0.232656      -0.044277
                                                         0.074788      -0.004674
                          1       5    5dz2              2.521825       0.698026
                                                         1.453920      -1.511486
                                                         0.614053      -0.335394
                                                         0.232656      -0.025564
                                                         0.074788      -0.002699

                          1       6    6dx2              2.521825       0.831079
                                                         1.453920      -0.709226
                                                         0.614053      -0.137351
                                                         0.232656       0.068642
                                                         0.074788       0.011745
                          1       6    6dxy              2.521825       1.439472
                                                         1.453920      -1.228415
                                                         0.614053      -0.237899
                                                         0.232656       0.118891
                                                         0.074788       0.020343
                          1       6    6dxz              2.521825       1.439472
                                                         1.453920      -1.228415
                                                         0.614053      -0.237899
                                                         0.232656       0.118891
                                                         0.074788       0.020343
                          1       6    6dy2              2.521825       0.831079
                                                         1.453920      -0.709226
                                                         0.614053      -0.137351
                                                         0.232656       0.068642
                                                         0.074788       0.011745
                          1       6    6dyz              2.521825       1.439472
                                                         1.453920      -1.228415
                                                         0.614053      -0.237899
                                                         0.232656       0.118891
                                                         0.074788       0.020343
                          1       6    6dz2              2.521825       0.831079
                                                         1.453920      -0.709226
                                                         0.614053      -0.137351
                                                         0.232656       0.068642
                                                         0.074788       0.011745

       Atomic covalent radius [Angstrom]:                                  1.300

       Atomic van der Waals radius [Angstrom]:                             1.750

     GTH Potential information for                                   GTH-PBE-q10

       Description:                       Goedecker-Teter-Hutter pseudopotential
                                           Goedecker et al., PRB 54, 1703 (1996)
                                          Hartwigsen et al., PRB 58, 3641 (1998)
                                                      Krack, TCA 114, 145 (2005)

       Gaussian exponent of the core charge distribution:               1.317676
       Electronic configuration (s p d ...):                           1   0   9

       Parameters of the local part of the GTH pseudopotential:

                          rloc        C1          C2          C3          C4
                        0.616000   11.313635

       Parameters of the non-local part of the GTH pseudopotential:

                   l      r(l)      h(i,j,l)

                   0    0.550904    4.733491   -1.784594
                                   -1.784594    2.303901
                   1    0.674138    2.534798   -1.778066
                                   -1.778066    2.103836
                   2    0.457392   -7.264011    2.558665
                                    2.558665   -2.901253


 MOLECULE KIND INFORMATION


 All atoms are their own molecule, skipping detailed information


 TOTAL NUMBERS AND MAXIMUM NUMBERS

  Total number of            - Atomic kinds:                                   3
                             - Atoms:                                        906
                             - Shell sets:                                   906
                             - Shells:                                      3826
                             - Primitive Cartesian functions:               4530
                             - Cartesian basis functions:                  10488
                             - Spherical basis functions:                   9610

  Maximum angular momentum of- Orbital basis functions:                        2
                             - Local part of the GTH pseudopotential:          2
                             - Non-local part of the GTH pseudopotential:      4


 MODULE QUICKSTEP:  ATOMIC COORDINATES IN angstrom

 Atom  Kind  Element       X           Y           Z          Z(eff)       Mass
    1   1 O    8       7.480001    0.690000   16.630001       6.0000     15.9994
    2   2 H    1       6.720000    0.940000   17.190001       1.0000      1.0079
    3   2 H    1       7.840000    1.550000   16.350000       1.0000      1.0079
    4   1 O    8      12.680000    1.830000    9.210001       6.0000     15.9994
    5   2 H    1      12.310000    2.760000    9.150001       1.0000      1.0079
    6   2 H    1      13.390001    1.740000    8.590000       1.0000      1.0079
    7   1 O    8       1.950000    1.800000   13.540001       6.0000     15.9994
    8   2 H    1       1.090000    2.030000   13.800001       1.0000      1.0079
    9   2 H    1       2.540000    2.670000   13.560000       1.0000      1.0079
   10   1 O    8       2.520000    2.020000   20.350000       6.0000     15.9994
   11   2 H    1       2.680000    1.890000   21.320002       1.0000      1.0079
   12   2 H    1       2.720000    1.170000   19.910000       1.0000      1.0079
   13   1 O    8       9.380000   -5.890000   25.550001       6.0000     15.9994
   14   2 H    1      10.050000   -5.350000   26.049999       1.0000      1.0079
   15   2 H    1       8.490001   -5.410000   25.620001       1.0000      1.0079
   16   1 O    8      -1.750000   28.860001    9.150001       6.0000     15.9994
   17   2 H    1      -0.930000   28.400002    9.240000       1.0000      1.0079
   18   2 H    1      -1.590000   29.390001    8.360001       1.0000      1.0079
   19   1 O    8      -4.430000   32.540001   18.210001       6.0000     15.9994
   20   2 H    1      -5.130000   32.540001   17.550001       1.0000      1.0079
   21   2 H    1      -4.230000   31.590002   18.180000       1.0000      1.0079
   22   1 O    8      -3.100000   23.000002    8.780001       6.0000     15.9994
   23   2 H    1      -2.770000   22.610001    7.930000       1.0000      1.0079
   24   2 H    1       5.880000    9.190001    8.960000       1.0000      1.0079
   25   1 O    8      -9.480001  -14.420000   22.260000       6.0000     15.9994
   26   2 H    1      -8.770000  -13.710001   22.550001       1.0000      1.0079
   27   2 H    1     -10.360001  -13.910000   22.360001       1.0000      1.0079
   28   1 O    8      11.910001   10.550001   24.730000       6.0000     15.9994
   29   2 H    1      11.980001   10.180000   25.650002       1.0000      1.0079
   30   2 H    1      11.830001    9.740001   24.180002       1.0000      1.0079
   31   1 O    8       5.230000    3.520000   16.140001       6.0000     15.9994
   32   2 H    1       6.200000    3.550000   15.910001       1.0000      1.0079
   33   2 H    1       5.220000    2.610000   16.480001       1.0000      1.0079
   34   1 O    8      -1.120000   -3.740000   30.350000       6.0000     15.9994
   35   2 H    1      -1.580000   -3.320000   29.520000       1.0000      1.0079
   36   2 H    1      -0.540000   -2.990000   30.780001       1.0000      1.0079
   37   1 O    8      -8.680000  -21.980001   27.910002       6.0000     15.9994
   38   2 H    1      -9.370001  -21.630001   28.600002       1.0000      1.0079
   39   2 H    1      -7.750000  -21.600000   28.280001       1.0000      1.0079
   40   1 O    8      19.800001   21.130001   11.530000       6.0000     15.9994
   41   2 H    1      19.230001   20.300003   11.610001       1.0000      1.0079
   42   2 H    1      20.540001   21.000002   12.230001       1.0000      1.0079
   43   1 O    8      11.610001   -3.450000   29.740002       6.0000     15.9994
   44   2 H    1      12.290001   -2.760000   29.500000       1.0000      1.0079
   45   2 H    1      10.740000   -3.290000   29.250002       1.0000      1.0079
   46   1 O    8     -11.170001    0.750000   28.050001       6.0000     15.9994
   47   2 H    1     -11.430000    0.460000   28.980003       1.0000      1.0079
   48   2 H    1     -11.830001    1.300000   27.640001       1.0000      1.0079
   49   1 O    8     -10.630001   18.610001   11.840000       6.0000     15.9994
   50   2 H    1     -11.330000   18.000000   11.990000       1.0000      1.0079
   51   2 H    1     -10.840001   19.540001   12.230001       1.0000      1.0079
   52   1 O    8       2.430000   15.640001   16.460001       6.0000     15.9994
   53   2 H    1       3.110000   14.990001   16.070002       1.0000      1.0079
   54   2 H    1       1.780000   15.750000   15.740002       1.0000      1.0079
   55   1 O    8      -3.520000   -9.460000   25.980000       6.0000     15.9994
   56   2 H    1      -2.660000   -9.850000   26.310001       1.0000      1.0079
   57   2 H    1      -3.300000   -8.530001   25.850000       1.0000      1.0079
   58   1 O    8      17.320002    4.330000   25.070002       6.0000     15.9994
   59   2 H    1      16.380001    4.470000   24.780003       1.0000      1.0079
   60   2 H    1      17.360001    3.560000   25.710001       1.0000      1.0079
   61   1 O    8     -15.550001   28.690002   25.320000       6.0000     15.9994
   62   2 H    1     -15.220001   28.210001   26.120003       1.0000      1.0079
   63   2 H    1       0.400000   28.300001   25.210001       1.0000      1.0079
   64   1 O    8      13.070001   -6.720000   18.900002       6.0000     15.9994
   65   2 H    1      13.800001   -7.000000   18.300001       1.0000      1.0079
   66   2 H    1      30.350000   -6.900001   19.800001       1.0000      1.0079
   67   1 O    8      11.660000    4.090000   13.950001       6.0000     15.9994
   68   2 H    1       3.810000   19.440001   13.970001       1.0000      1.0079
   69   2 H    1      11.580001    3.760000   13.050001       1.0000      1.0079
   70   1 O    8      -9.630001   18.520000   32.660004       6.0000     15.9994
   71   2 H    1      -9.450001   18.900002   33.510002       1.0000      1.0079
   72   2 H    1     -10.670000   18.570002   32.570004       1.0000      1.0079
   73   1 O    8       4.260000    2.120000   26.180000       6.0000     15.9994
   74   2 H    1       4.520000    1.720000   25.300003       1.0000      1.0079
   75   2 H    1       3.280000    2.260000   26.070002       1.0000      1.0079
   76   1 O    8      -3.020000    8.030001   31.810001       6.0000     15.9994
   77   2 H    1      -2.860000    8.240001   30.850000       1.0000      1.0079
   78   2 H    1      -2.160000    7.660000   32.190002       1.0000      1.0079
   79   1 O    8     -10.680000  -22.750000   16.270000       6.0000     15.9994
   80   2 H    1     -10.920000  -23.700001   16.590000       1.0000      1.0079
   81   2 H    1     -10.000000  -22.780001   15.580001       1.0000      1.0079
   82   1 O    8       5.150001    2.210000   12.340001       6.0000     15.9994
   83   2 H    1       5.410000    1.430000   12.850000       1.0000      1.0079
   84   2 H    1       4.590000    2.900000   12.830001       1.0000      1.0079
   85   1 O    8       2.070000   25.370003   15.140000       6.0000     15.9994
   86   2 H    1       1.390000   24.890001   15.650001       1.0000      1.0079
   87   2 H    1       2.440000   26.110001   15.730000       1.0000      1.0079
   88   1 O    8      11.370001   -5.260000    8.270000       6.0000     15.9994
   89   2 H    1      -4.580000   -5.610001    8.390000       1.0000      1.0079
   90   2 H    1      10.880001   -6.100000    8.480000       1.0000      1.0079
   91   1 O    8       2.720000   -1.830000   23.330002       6.0000     15.9994
   92   2 H    1       3.080000   -2.610000   23.810001       1.0000      1.0079
   93   2 H    1       2.290000   -1.220000   23.990002       1.0000      1.0079
   94   1 O    8       7.780001   14.420000   13.520001       6.0000     15.9994
   95   2 H    1       7.810000   15.370001   13.740001       1.0000      1.0079
   96   2 H    1       6.840000   14.260001   13.200001       1.0000      1.0079
   97   1 O    8     -11.810001  -15.240001   13.240002       6.0000     15.9994
   98   2 H    1     -12.080001  -16.060001   12.700001       1.0000      1.0079
   99   2 H    1     -12.250000  -15.380001   14.070001       1.0000      1.0079
  100   1 O    8       1.420000    2.030000   26.540001       6.0000     15.9994
  101   2 H    1       1.540000    1.220000   25.900002       1.0000      1.0079
  102   2 H    1       1.320000    1.600000   27.420002       1.0000      1.0079
  103   1 O    8      18.260000   10.930000   21.210001       6.0000     15.9994
  104   2 H    1      17.840000   11.760000   21.500000       1.0000      1.0079
  105   2 H    1       1.090000   10.730000   20.310001       1.0000      1.0079
  106   1 O    8      -1.430000    9.470000    8.940001       6.0000     15.9994
  107   2 H    1      -2.040000   10.270000    9.080001       1.0000      1.0079
  108   2 H    1      -0.530000    9.890000    8.790001       1.0000      1.0079
  109   1 O    8      24.960001   14.120001   19.840000       6.0000     15.9994
  110   2 H    1      24.970001   14.850000   19.160002       1.0000      1.0079
  111   2 H    1      24.520000   14.440001   20.610001       1.0000      1.0079
  112   1 O    8      -9.160001    8.930000   25.740002       6.0000     15.9994
  113   2 H    1      -8.920000    9.760000   26.180000       1.0000      1.0079
  114   2 H    1      -9.000000    8.380001   26.580002       1.0000      1.0079
  115   1 O    8      11.850000   18.550001   18.410000       6.0000     15.9994
  116   2 H    1      11.590000   17.920000   19.160002       1.0000      1.0079
  117   2 H    1      12.680000   18.260000   17.980001       1.0000      1.0079
  118   1 O    8     -16.220001   10.420000   18.550001       6.0000     15.9994
  119   2 H    1     -15.790001    9.510000   18.430000       1.0000      1.0079
  120   2 H    1     -15.820000   10.880001   17.760002       1.0000      1.0079
  121   1 O    8       8.600000    9.520000   18.870001       6.0000     15.9994
  122   2 H    1       8.020000   10.270000   19.070000       1.0000      1.0079
  123   2 H    1       9.530001    9.940001   18.890001       1.0000      1.0079
  124   1 O    8     -12.490001   11.880001   25.710001       6.0000     15.9994
  125   2 H    1     -21.570000   27.120001   25.410002       1.0000      1.0079
  126   2 H    1     -12.020000   11.580001   24.850002       1.0000      1.0079
  127   1 O    8      16.910002   -5.310000   16.330002       6.0000     15.9994
  128   2 H    1      16.830002   -4.990000   17.320002       1.0000      1.0079
  129   2 H    1       8.740000    8.350000   16.639999       1.0000      1.0079
  130   1 O    8      -0.060000    1.450000   32.130001       6.0000     15.9994
  131   2 H    1      -0.450000    2.220000   32.600002       1.0000      1.0079
  132   2 H    1      -0.510000    0.550000   32.370003       1.0000      1.0079
  133   1 O    8      -2.100000   24.710003   15.090000       6.0000     15.9994
  134   2 H    1      -2.920000   24.230001   15.350000       1.0000      1.0079
  135   2 H    1      -1.430000   24.240000   15.640001       1.0000      1.0079
  136   1 O    8     -19.770000    4.050000   21.880001       6.0000     15.9994
  137   2 H    1     -19.170000    4.010000   21.110001       1.0000      1.0079
  138   2 H    1     -20.050001    3.120000   22.040001       1.0000      1.0079
  139   1 O    8      -1.870000    9.500000   18.250000       6.0000     15.9994
  140   2 H    1      -0.960000    9.860001   18.400000       1.0000      1.0079
  141   2 H    1      -1.790000    8.550000   18.520000       1.0000      1.0079
  142   1 O    8       1.480000   15.330001   11.870001       6.0000     15.9994
  143   2 H    1       0.910000   15.840001   11.150000       1.0000      1.0079
  144   2 H    1       2.310000   15.850000   11.990000       1.0000      1.0079
  145   1 O    8      -8.980000   30.430002   22.160000       6.0000     15.9994
  146   2 H    1       7.380000   30.550001   23.020000       1.0000      1.0079
  147   2 H    1      -8.260000   31.060001   22.330000       1.0000      1.0079
  148   1 O    8     -18.010002   17.310001   29.480001       6.0000     15.9994
  149   2 H    1     -18.540001   16.680000   28.910000       1.0000      1.0079
  150   2 H    1     -18.640001   18.070000   29.670002       1.0000      1.0079
  151   1 O    8       0.720000   20.590000   19.550001       6.0000     15.9994
  152   2 H    1       1.570000   20.210001   19.920002       1.0000      1.0079
  153   2 H    1       0.440000   21.260002   20.270002       1.0000      1.0079
  154   1 O    8       2.070000   -1.910000   27.420002       6.0000     15.9994
  155   2 H    1       2.100000   -1.580000   28.360003       1.0000      1.0079
  156   2 H    1       2.550000   -2.790000   27.440002       1.0000      1.0079
  157   1 O    8      -3.750000   -3.830000   18.790001       6.0000     15.9994
  158   2 H    1      -2.850000   -3.600000   18.470001       1.0000      1.0079
  159   2 H    1      -3.690000   -4.870000   18.880001       1.0000      1.0079
  160   1 O    8       1.210000   -1.400000    9.160001       6.0000     15.9994
  161   2 H    1       1.670000   -1.320000    8.310000       1.0000      1.0079
  162   2 H    1       1.710000   -0.880000    9.860001       1.0000      1.0079
  163   1 O    8      36.830002   -7.110000   26.130001       6.0000     15.9994
  164   2 H    1      37.090000   -6.420000   26.790001       1.0000      1.0079
  165   2 H    1      36.300003   -6.660000   25.330002       1.0000      1.0079
  166   1 O    8       1.150000   12.340001   13.150001       6.0000     15.9994
  167   2 H    1       1.550000   13.060001   12.710000       1.0000      1.0079
  168   2 H    1       0.170000   12.350000   12.750001       1.0000      1.0079
  169   1 O    8     -31.740002    6.140000   22.420002       6.0000     15.9994
  170   2 H    1     -15.370001    5.910000   21.580000       1.0000      1.0079
  171   2 H    1     -14.860001    7.180000   22.360001       1.0000      1.0079
  172   1 O    8       7.060000   -1.790000   12.330000       6.0000     15.9994
  173   2 H    1       6.660000   -1.100000   12.970000       1.0000      1.0079
  174   2 H    1       6.590000   -2.600000   12.350000       1.0000      1.0079
  175   1 O    8       4.020000   12.050000   21.180000       6.0000     15.9994
  176   2 H    1       3.100000   11.720000   21.040001       1.0000      1.0079
  177   2 H    1       4.620000   11.450001   20.590000       1.0000      1.0079
  178   1 O    8       6.400001   19.370001   24.400002       6.0000     15.9994
  179   2 H    1       5.950000   18.710001   25.020000       1.0000      1.0079
  180   2 H    1       6.290000   19.190002   23.460003       1.0000      1.0079
  181   1 O    8      15.320001   -0.940000   32.710003       6.0000     15.9994
  182   2 H    1      14.670001   -0.430000   32.240002       1.0000      1.0079
  183   2 H    1      15.240001   -0.730000   33.639999       1.0000      1.0079
  184   1 O    8       8.890000   12.450000   31.620003       6.0000     15.9994
  185   2 H    1       9.280001   11.970000   32.389999       1.0000      1.0079
  186   2 H    1       8.190001   12.870001   32.110001       1.0000      1.0079
  187   1 O    8       1.970000   34.620003   16.620001       6.0000     15.9994
  188   2 H    1       2.490000   34.120003   17.230000       1.0000      1.0079
  189   2 H    1       2.570000   35.040001   15.900001       1.0000      1.0079
  190   1 O    8       5.090000   14.690001   28.810001       6.0000     15.9994
  191   2 H    1       4.100000   14.810000   29.010000       1.0000      1.0079
  192   2 H    1       5.540000   15.360001   29.390001       1.0000      1.0079
  193   1 O    8       4.860000   11.960001   11.600000       6.0000     15.9994
  194   2 H    1       5.710001   11.360001   11.720000       1.0000      1.0079
  195   2 H    1       4.680000   11.980001   10.660001       1.0000      1.0079
  196   1 O    8     -22.830000    0.660000   29.560001       6.0000     15.9994
  197   2 H    1     -22.340002    1.490000   29.790001       1.0000      1.0079
  198   2 H    1     -23.140001    0.370000   30.420000       1.0000      1.0079
  199   1 O    8      -8.780001   18.050001   20.500002       6.0000     15.9994
  200   2 H    1      -8.190001   18.750002   20.150002       1.0000      1.0079
  201   2 H    1      -8.220000   17.690001   21.230001       1.0000      1.0079
  202   1 O    8      10.870000   16.880001    9.020000       6.0000     15.9994
  203   2 H    1      11.860001   16.790001    9.180000       1.0000      1.0079
  204   2 H    1      10.690001   16.390001    8.240001       1.0000      1.0079
  205   1 O    8      24.220001   -7.810000    8.270000       6.0000     15.9994
  206   2 H    1      15.350000    7.790000    8.530001       1.0000      1.0079
  207   2 H    1      25.140001   -7.720000    8.630000       1.0000      1.0079
  208   1 O    8       3.390000  -21.650002   29.110003       6.0000     15.9994
  209   2 H    1       3.390000  -22.520000   28.549999       1.0000      1.0079
  210   2 H    1       4.270000  -21.330002   29.000000       1.0000      1.0079
  211   1 O    8       4.920000  -14.220000   25.870001       6.0000     15.9994
  212   2 H    1       5.170000  -14.440001   26.830002       1.0000      1.0079
  213   2 H    1       5.760000  -14.540001   25.450001       1.0000      1.0079
  214   1 O    8       9.010000    1.460000   14.170000       6.0000     15.9994
  215   2 H    1       9.380000    1.240000   13.260001       1.0000      1.0079
  216   2 H    1       8.950001    2.430000   14.220000       1.0000      1.0079
  217   1 O    8     -19.040001   -4.500000   32.510002       6.0000     15.9994
  218   2 H    1     -18.730001   -4.000000   33.290001       1.0000      1.0079
  219   2 H    1     -18.550001   -4.240000   31.660002       1.0000      1.0079
  220   1 O    8      24.280003    4.420000   26.250002       6.0000     15.9994
  221   2 H    1      24.350002    4.870000   27.090000       1.0000      1.0079
  222   2 H    1      24.740002    4.920000   25.550001       1.0000      1.0079
  223   1 O    8      -1.540000    6.960001   19.020000       6.0000     15.9994
  224   2 H    1      14.660001    7.090001   19.770000       1.0000      1.0079
  225   2 H    1      -1.950000    6.230001   18.480000       1.0000      1.0079
  226   1 O    8      -1.210000   31.530001    8.200001       6.0000     15.9994
  227   2 H    1      -1.780000   32.290001    8.460000       1.0000      1.0079
  228   2 H    1      16.430000   31.460001    8.800000       1.0000      1.0079
  229   1 O    8      -0.200000   12.740001   16.150002       6.0000     15.9994
  230   2 H    1      -0.580000   13.720001   16.280001       1.0000      1.0079
  231   2 H    1       0.460000   12.850000   15.430001       1.0000      1.0079
  232   1 O    8       2.850000    7.660000   32.090000       6.0000     15.9994
  233   2 H    1       3.060000    7.510000   31.140001       1.0000      1.0079
  234   2 H    1       3.210000    8.620001   32.150002       1.0000      1.0079
  235   1 O    8     -11.220001   21.960001   24.799999       6.0000     15.9994
  236   2 H    1     -10.820000   21.000002   24.870003       1.0000      1.0079
  237   2 H    1     -12.030001   21.990002   25.400002       1.0000      1.0079
  238   1 O    8       4.380000   -4.130000   33.100002       6.0000     15.9994
  239   2 H    1      -3.570000    9.640000   32.690002       1.0000      1.0079
  240   2 H    1       4.880000   -3.340000   32.680000       1.0000      1.0079
  241   1 O    8      14.130001   -2.400000   28.050001       6.0000     15.9994
  242   2 H    1      13.620001   -2.300000   27.200001       1.0000      1.0079
  243   2 H    1      14.010000   -1.500000   28.470001       1.0000      1.0079
  244   1 O    8      -1.780000   -4.130000    9.090000       6.0000     15.9994
  245   2 H    1      -1.830000   -3.670000    8.210000       1.0000      1.0079
  246   2 H    1      -0.860000   -4.400000    9.350000       1.0000      1.0079
  247   1 O    8      16.940001    5.400000   30.830002       6.0000     15.9994
  248   2 H    1      17.180000    6.090000   31.490002       1.0000      1.0079
  249   2 H    1      16.360001    4.770000   31.360001       1.0000      1.0079
  250   1 O    8      23.100002    8.350000   29.530001       6.0000     15.9994
  251   2 H    1      23.780001    9.120001   29.610003       1.0000      1.0079
  252   2 H    1      23.080002    7.970000   30.440002       1.0000      1.0079
  253   1 O    8      -5.160000    9.200000    8.530001       6.0000     15.9994
  254   2 H    1      -5.000000    8.240001    8.460000       1.0000      1.0079
  255   2 H    1      -6.070001    9.200000    8.920000       1.0000      1.0079
  256   1 O    8      19.860001   -4.740000   21.460001       6.0000     15.9994
  257   2 H    1      19.120001   -4.980001   22.060001       1.0000      1.0079
  258   2 H    1      19.600000   -3.850000   21.020000       1.0000      1.0079
  259   1 O    8     -15.290001   17.960001   22.590000       6.0000     15.9994
  260   2 H    1     -15.720000   18.760000   23.020000       1.0000      1.0079
  261   2 H    1     -14.900002   18.290001   21.760002       1.0000      1.0079
  262   1 O    8       7.320001    8.230000   11.450001       6.0000     15.9994
  263   2 H    1       7.530000    9.120001   11.880001       1.0000      1.0079
  264   2 H    1       6.330000    8.330001   11.510000       1.0000      1.0079
  265   1 O    8      -1.410000   -4.040000   12.400000       6.0000     15.9994
  266   2 H    1      -1.570000   -4.250000   13.320000       1.0000      1.0079
  267   2 H    1       7.780001   11.190001   12.450000       1.0000      1.0079
  268   1 O    8       3.700000   -8.610001   29.330002       6.0000     15.9994
  269   2 H    1       3.920000   -8.740000   28.430002       1.0000      1.0079
  270   2 H    1       4.500000   -8.210000   29.760000       1.0000      1.0079
  271   1 O    8       4.770000    7.080000   12.030001       6.0000     15.9994
  272   2 H    1       4.930000    6.380000   11.350001       1.0000      1.0079
  273   2 H    1       3.800000    7.370000   11.820001       1.0000      1.0079
  274   1 O    8      -2.970000   16.220001   18.060001       6.0000     15.9994
  275   2 H    1      -2.640000   16.490000   18.910000       1.0000      1.0079
  276   2 H    1      -3.650000   15.480001   18.090002       1.0000      1.0079
  277   1 O    8       2.940000   10.400001   12.790001       6.0000     15.9994
  278   2 H    1     -13.170000   10.990001   12.490001       1.0000      1.0079
  279   2 H    1       2.140000   10.980000   12.850000       1.0000      1.0079
  280   1 O    8      32.530003   -6.820001   31.880001       6.0000     15.9994
  281   2 H    1      32.340004   -7.620000   32.400002       1.0000      1.0079
  282   2 H    1      32.250000   -6.100000   32.490002       1.0000      1.0079
  283   1 O    8      14.240000   -7.600000   21.460001       6.0000     15.9994
  284   2 H    1       5.280000    7.420001   22.240002       1.0000      1.0079
  285   2 H    1      14.000001   -8.570001   21.590002       1.0000      1.0079
  286   1 O    8     -31.310001   28.130001   29.920002       6.0000     15.9994
  287   2 H    1     -14.960001   27.810001   30.680000       1.0000      1.0079
  288   2 H    1     -31.620003   29.070000   29.850002       1.0000      1.0079
  289   1 O    8      -3.300000    3.250000   26.070002       6.0000     15.9994
  290   2 H    1      -3.370000    2.300000   26.000002       1.0000      1.0079
  291   2 H    1      -2.860000    3.420000   26.930000       1.0000      1.0079
  292   1 O    8      11.690001    4.730000   20.540001       6.0000     15.9994
  293   2 H    1      11.910001    4.040000   19.850002       1.0000      1.0079
  294   2 H    1      12.400000    4.740000   21.130001       1.0000      1.0079
  295   1 O    8       2.420000   14.160000   32.520000       6.0000     15.9994
  296   2 H    1       1.720000   14.570000   33.040001       1.0000      1.0079
  297   2 H    1       2.160000   13.170000   32.560001       1.0000      1.0079
  298   1 O    8       3.670000   17.690001   29.930000       6.0000     15.9994
  299   2 H    1       2.850000   18.160002   29.660000       1.0000      1.0079
  300   2 H    1       3.690000   17.800001   30.880001       1.0000      1.0079
  301   1 O    8      -6.310000    9.280001   12.180000       6.0000     15.9994
  302   2 H    1      -5.430000    9.570000   12.410001       1.0000      1.0079
  303   2 H    1      -6.030001    8.360001   11.900001       1.0000      1.0079
  304   1 O    8      11.710000   11.900001   11.690001       6.0000     15.9994
  305   2 H    1      10.730000   11.890000   12.160001       1.0000      1.0079
  306   2 H    1      11.900001   12.840000   11.690001       1.0000      1.0079
  307   1 O    8     -14.360001    8.160001   11.690001       6.0000     15.9994
  308   2 H    1     -14.180001    9.170000   11.810001       1.0000      1.0079
  309   2 H    1     -15.200001    8.010000   12.150001       1.0000      1.0079
  310   1 O    8     -12.340001   22.090000   20.320000       6.0000     15.9994
  311   2 H    1     -12.670001   22.510002   21.170002       1.0000      1.0079
  312   2 H    1     -13.060001   21.520002   19.990002       1.0000      1.0079
  313   1 O    8      15.280001   10.920000   29.350002       6.0000     15.9994
  314   2 H    1      15.140000   11.510000   30.130003       1.0000      1.0079
  315   2 H    1      14.880000   11.180000   28.480000       1.0000      1.0079
  316   1 O    8       5.280000   -8.340000   12.770000       6.0000     15.9994
  317   2 H    1       5.550000   -8.070001   13.700001       1.0000      1.0079
  318   2 H    1       5.670000   -7.590001   12.270001       1.0000      1.0079
  319   1 O    8       3.800000    9.350000   14.970001       6.0000     15.9994
  320   2 H    1       3.410000    8.420001   14.870001       1.0000      1.0079
  321   2 H    1       3.410000    9.860001   14.190001       1.0000      1.0079
  322   1 O    8      14.070001   10.570001   20.960003       6.0000     15.9994
  323   2 H    1      13.180000   10.200001   21.160002       1.0000      1.0079
  324   2 H    1      14.190001   10.310000   20.030001       1.0000      1.0079
  325   1 O    8      10.870000   15.730000   32.810001       6.0000     15.9994
  326   2 H    1      11.150000   16.310001   33.620003       1.0000      1.0079
  327   2 H    1       9.890000   15.960001   32.640003       1.0000      1.0079
  328   1 O    8       2.600000   18.700001    9.200000       6.0000     15.9994
  329   2 H    1       3.260000   19.410002    8.900001       1.0000      1.0079
  330   2 H    1       1.990000   18.730001    8.420001       1.0000      1.0079
  331   1 O    8     -20.490000   22.900002   25.770000       6.0000     15.9994
  332   2 H    1     -21.190002   23.220001   26.360001       1.0000      1.0079
  333   2 H    1     -19.580000   23.260002   25.950001       1.0000      1.0079
  334   1 O    8     -12.400000    8.470000   23.100002       6.0000     15.9994
  335   2 H    1     -13.400001    8.680000   23.210001       1.0000      1.0079
  336   2 H    1     -12.070000    8.190001   23.990002       1.0000      1.0079
  337   1 O    8       1.590000   18.820002   28.780001       6.0000     15.9994
  338   2 H    1       9.960001    3.710000   27.910002       1.0000      1.0079
  339   2 H    1     -16.120001   18.490002   29.110003       1.0000      1.0079
  340   1 O    8      12.670001   31.000002   12.070000       6.0000     15.9994
  341   2 H    1      13.050001   30.250000   12.570001       1.0000      1.0079
  342   2 H    1      12.780001   30.760002   11.120001       1.0000      1.0079
  343   1 O    8       9.320001   11.990000   13.020000       6.0000     15.9994
  344   2 H    1       9.100000   12.910000   13.300000       1.0000      1.0079
  345   2 H    1       9.580001   11.420001   13.850001       1.0000      1.0079
  346   1 O    8       5.950000  -10.690001   28.590002       6.0000     15.9994
  347   2 H    1       5.070000  -10.850000   29.150002       1.0000      1.0079
  348   2 H    1       6.160001   -9.770000   28.590002       1.0000      1.0079
  349   1 O    8      23.330002    2.360000   20.380001       6.0000     15.9994
  350   2 H    1      22.550001    2.890000   20.700001       1.0000      1.0079
  351   2 H    1      23.700001    1.790000   21.140001       1.0000      1.0079
  352   1 O    8      17.680000    6.010000   19.950001       6.0000     15.9994
  353   2 H    1      18.280001    6.450000   19.290001       1.0000      1.0079
  354   2 H    1      16.760002    6.340000   19.870001       1.0000      1.0079
  355   1 O    8       8.190001   -1.240000   19.070000       6.0000     15.9994
  356   2 H    1       8.670000   -0.350000   19.000000       1.0000      1.0079
  357   2 H    1       8.680000   -1.810000   18.480000       1.0000      1.0079
  358   1 O    8       6.250000   23.280001   11.820001       6.0000     15.9994
  359   2 H    1       5.790000   24.030001   12.240001       1.0000      1.0079
  360   2 H    1       6.310000   23.470001   10.820000       1.0000      1.0079
  361   1 O    8      -2.930000    8.720000   29.240000       6.0000     15.9994
  362   2 H    1      -2.210000    8.120001   28.880003       1.0000      1.0079
  363   2 H    1      -2.380000    9.570000   29.470001       1.0000      1.0079
  364   1 O    8       4.910000   16.110001   22.610001       6.0000     15.9994
  365   2 H    1       4.320000   15.560001   21.970001       1.0000      1.0079
  366   2 H    1       4.350000   16.280001   23.450001       1.0000      1.0079
  367   1 O    8      -3.100000   10.840001   13.250000       6.0000     15.9994
  368   2 H    1      -3.970000   11.300000   13.060001       1.0000      1.0079
  369   2 H    1      -3.070000   10.650001   14.220000       1.0000      1.0079
  370   1 O    8     -13.860001   -1.320000   33.300003       6.0000     15.9994
  371   2 H    1     -14.110001   -0.330000   33.070000       1.0000      1.0079
  372   2 H    1     -12.930001   -1.410000   32.950001       1.0000      1.0079
  373   1 O    8      -1.630000    9.800000   25.250000       6.0000     15.9994
  374   2 H    1      -2.090000    8.950001   25.110001       1.0000      1.0079
  375   2 H    1      -1.950000   10.360001   24.490002       1.0000      1.0079
  376   1 O    8      -1.700000   17.280001    8.090000       6.0000     15.9994
  377   2 H    1      -2.500000   16.860001    8.440001       1.0000      1.0079
  378   2 H    1      -0.940000   16.820000    8.700001       1.0000      1.0079
  379   1 O    8       5.650000   -3.380000   27.130001       6.0000     15.9994
  380   2 H    1       5.540000   -2.510000   26.670000       1.0000      1.0079
  381   2 H    1       6.180000   -3.990000   26.470001       1.0000      1.0079
  382   1 O    8      -7.480001    2.630000   26.540001       6.0000     15.9994
  383   2 H    1      -7.760000    1.660000   26.580002       1.0000      1.0079
  384   2 H    1      -8.300000    3.210000   26.350002       1.0000      1.0079
  385   1 O    8      -0.830000   20.980000   13.550000       6.0000     15.9994
  386   2 H    1      -0.850000   21.840000   13.030001       1.0000      1.0079
  387   2 H    1      -0.980000   20.210001   12.960000       1.0000      1.0079
  388   1 O    8      -2.570000    4.650001    9.140000       6.0000     15.9994
  389   2 H    1      -1.900000    5.280000    8.650001       1.0000      1.0079
  390   2 H    1      -2.370000    4.590000   10.120001       1.0000      1.0079
  391   1 O    8      -0.180000   19.530001    8.310000       6.0000     15.9994
  392   2 H    1      -1.110000   19.510000    8.220000       1.0000      1.0079
  393   2 H    1      -0.040000   20.510002    8.490001       1.0000      1.0079
  394   1 O    8       7.370000   16.270000   29.650002       6.0000     15.9994
  395   2 H    1      16.000000    1.680000   30.580002       1.0000      1.0079
  396   2 H    1       7.050000   17.160000   29.440002       1.0000      1.0079
  397   1 O    8       2.020000    8.000000   18.170000       6.0000     15.9994
  398   2 H    1       1.510000    7.290000   17.700001       1.0000      1.0079
  399   2 H    1       2.940000    7.660000   18.300001       1.0000      1.0079
  400   1 O    8       9.930000   15.810001   29.030001       6.0000     15.9994
  401   2 H    1      10.160000   16.740000   29.470001       1.0000      1.0079
  402   2 H    1       8.920000   15.710001   29.240000       1.0000      1.0079
  403   1 O    8      26.400002   34.470001   14.980001       6.0000     15.9994
  404   2 H    1      25.940001   35.040001   14.310001       1.0000      1.0079
  405   2 H    1      27.210003   34.020000   14.560001       1.0000      1.0079
  406   1 O    8       5.280000   -1.930000   32.000000       6.0000     15.9994
  407   2 H    1       5.140000   -1.310000   31.180000       1.0000      1.0079
  408   2 H    1       6.270000   -1.750000   32.130001       1.0000      1.0079
  409   1 O    8      20.240002    4.060000   13.120001       6.0000     15.9994
  410   2 H    1      19.460001    4.580000   12.780001       1.0000      1.0079
  411   2 H    1      20.580002    4.540000   13.940001       1.0000      1.0079
  412   1 O    8     -15.560001   -6.640000   24.020002       6.0000     15.9994
  413   2 H    1     -15.980000   -6.620001   23.130001       1.0000      1.0079
  414   2 H    1     -16.270000   -6.190000   24.640003       1.0000      1.0079
  415   1 O    8      -8.130000   17.270000   10.650001       6.0000     15.9994
  416   2 H    1      -7.320001   17.210001   10.120001       1.0000      1.0079
  417   2 H    1      -8.410000   16.390001   10.930000       1.0000      1.0079
  418   1 O    8      31.510002   43.920002   13.830000       6.0000     15.9994
  419   2 H    1      32.110001   44.050003   14.590001       1.0000      1.0079
  420   2 H    1      30.630001   43.720001   14.300001       1.0000      1.0079
  421   1 O    8      22.390001    5.760000    9.770000       6.0000     15.9994
  422   2 H    1      22.390001    6.700000    9.480001       1.0000      1.0079
  423   2 H    1      21.500000    5.320000    9.570000       1.0000      1.0079
  424   1 O    8       4.510000   18.520000   32.370003       6.0000     15.9994
  425   2 H    1       3.860000   18.410000   33.090004       1.0000      1.0079
  426   2 H    1      12.770000    4.930000   32.330002       1.0000      1.0079
  427   1 O    8       0.690000    6.400001   26.800001       6.0000     15.9994
  428   2 H    1       0.720000    5.700001   26.160002       1.0000      1.0079
  429   2 H    1       0.660000    7.240000   26.310001       1.0000      1.0079
  430   1 O    8      -4.650001   14.720001   14.710001       6.0000     15.9994
  431   2 H    1      -5.360000   15.340000   14.390000       1.0000      1.0079
  432   2 H    1      -5.070000   13.990001   15.290001       1.0000      1.0079
  433   1 O    8      -2.910000   -3.450000   23.280001       6.0000     15.9994
  434   2 H    1      -3.530000   -3.160000   22.580002       1.0000      1.0079
  435   2 H    1      -3.190000   -4.440001   23.330002       1.0000      1.0079
  436   1 O    8       2.940000   24.920002   18.540001       6.0000     15.9994
  437   2 H    1       3.130000   25.720001   17.900002       1.0000      1.0079
  438   2 H    1      11.860001    9.580001   18.040001       1.0000      1.0079
  439   1 O    8      -3.290000    1.000000   18.150002       6.0000     15.9994
  440   2 H    1      -3.430000    0.430000   17.350002       1.0000      1.0079
  441   2 H    1      -3.740000    0.490000   18.900002       1.0000      1.0079
  442   1 O    8       9.650001    7.030000   16.950001       6.0000     15.9994
  443   2 H    1       9.480001    6.820001   17.900002       1.0000      1.0079
  444   2 H    1       9.740001    6.210001   16.370001       1.0000      1.0079
  445   1 O    8     -16.020000   11.280001    8.910000       6.0000     15.9994
  446   2 H    1     -15.470000   11.400002    8.040000       1.0000      1.0079
  447   2 H    1     -16.570000   12.080001    8.990001       1.0000      1.0079
  448   1 O    8      -7.510000   10.270000    9.810000       6.0000     15.9994
  449   2 H    1      -7.250000   10.190001   10.720000       1.0000      1.0079
  450   2 H    1       9.630001   11.180000    9.510000       1.0000      1.0079
  451   1 O    8       3.970000    3.790000   32.000000       6.0000     15.9994
  452   2 H    1       3.140000    3.620000   31.450003       1.0000      1.0079
  453   2 H    1       4.360000    2.910000   32.230000       1.0000      1.0079
  454   1 O    8      13.270000   14.470000   30.280001       6.0000     15.9994
  455   2 H    1      13.490001   15.100001   31.070002       1.0000      1.0079
  456   2 H    1      12.340001   14.100000   30.260002       1.0000      1.0079
  457   1 O    8      -0.140000   -3.850000   21.830002       6.0000     15.9994
  458   2 H    1       0.300000   -3.100000   21.430000       1.0000      1.0079
  459   2 H    1      -0.820000   -3.450000   22.390001       1.0000      1.0079
  460   1 O    8      11.820001   16.320002   23.059999       6.0000     15.9994
  461   2 H    1      12.040001   17.230000   23.310001       1.0000      1.0079
  462   2 H    1      -4.210001   15.790001   22.950001       1.0000      1.0079
  463   1 O    8     -12.900001  -14.410001   20.459999       6.0000     15.9994
  464   2 H    1     -13.720001  -14.010000   20.020000       1.0000      1.0079
  465   2 H    1     -13.020000  -15.400001   20.640001       1.0000      1.0079
  466   1 O    8       4.740000   -1.070000    9.050000       6.0000     15.9994
  467   2 H    1       4.710000   -2.150000    9.110001       1.0000      1.0079
  468   2 H    1       4.720000   -0.880000    8.060000       1.0000      1.0079
  469   1 O    8      -6.640000   -3.560000   33.650002       6.0000     15.9994
  470   2 H    1      -5.880000   -3.960000   33.170002       1.0000      1.0079
  471   2 H    1      -7.550001   -3.910000   33.240002       1.0000      1.0079
  472   1 O    8       6.690001    1.430000   24.570000       6.0000     15.9994
  473   2 H    1       7.080000    2.080000   25.220001       1.0000      1.0079
  474   2 H    1       6.660000    0.500000   24.910002       1.0000      1.0079
  475   1 O    8      13.160001   11.010000    9.670001       6.0000     15.9994
  476   2 H    1      12.770000   11.170001   10.530001       1.0000      1.0079
  477   2 H    1      12.560000   10.240001    9.310000       1.0000      1.0079
  478   1 O    8     -11.970000   30.760002    9.700001       6.0000     15.9994
  479   2 H    1     -11.800001   31.030003   10.640000       1.0000      1.0079
  480   2 H    1     -12.120000   29.810001    9.710001       1.0000      1.0079
  481   1 O    8      10.450001    8.130000   29.280003       6.0000     15.9994
  482   2 H    1      10.470000    8.330001   30.300003       1.0000      1.0079
  483   2 H    1      10.970000    7.250000   29.139999       1.0000      1.0079
  484   1 O    8      -8.440001   36.940002   21.770000       6.0000     15.9994
  485   2 H    1      -8.430000   37.810001   21.360001       1.0000      1.0079
  486   2 H    1      -9.420000   36.750000   21.800001       1.0000      1.0079
  487   1 O    8      16.440001   32.850002   16.390001       6.0000     15.9994
  488   2 H    1      16.440001   32.040001   17.000000       1.0000      1.0079
  489   2 H    1      17.370001   33.230003   16.610001       1.0000      1.0079
  490   1 O    8      15.550001   18.560001   11.930000       6.0000     15.9994
  491   2 H    1      14.860001   17.940001   12.340001       1.0000      1.0079
  492   2 H    1      15.110001   18.960001   11.120001       1.0000      1.0079
  493   1 O    8      -0.340000   10.110001   32.650002       6.0000     15.9994
  494   2 H    1      -9.420000   24.920002   33.390003       1.0000      1.0079
  495   2 H    1      -0.300000    9.110001   32.540001       1.0000      1.0079
  496   1 O    8       9.360001   -3.090000   28.020000       6.0000     15.9994
  497   2 H    1       0.180000   11.210001   28.549999       1.0000      1.0079
  498   2 H    1       0.610000   12.460001   27.860001       1.0000      1.0079
  499   1 O    8      18.470001   15.640001   19.130001       6.0000     15.9994
  500   2 H    1      17.889999   16.450001   19.320000       1.0000      1.0079
  501   2 H    1      18.590000   15.750000   18.160002       1.0000      1.0079
  502   1 O    8      11.440001   10.050000   27.610001       6.0000     15.9994
  503   2 H    1      11.090001    9.370001   28.190002       1.0000      1.0079
  504   2 H    1      12.400000   10.240001   27.790001       1.0000      1.0079
  505   1 O    8      18.320002    7.250000    9.080001       6.0000     15.9994
[...]
    899      3      Pt          0.00112760    -0.00330894    -0.01004507
    900      3      Pt          0.00301196     0.00874341    -0.00300411
    901      3      Pt         -0.00465128     0.00198160    -0.01708799
    902      3      Pt          0.00327959    -0.00026687     0.00274369
    903      3      Pt          0.00922362    -0.01028482    -0.00282334
    904      3      Pt         -0.00978579     0.00332066     0.00961723
    905      3      Pt         -0.00125679     0.00431294    -0.00469409
    906      3      Pt          0.01420086     0.00015905    -0.02002398
 SUM OF ATOMIC FORCES          -0.01335411     0.01018417     0.03560357     0.03936577

 STRESS| Analytical stress tensor [GPa]
 STRESS|                        x                   y                   z
 STRESS|      x       -2.79062224796E+00   5.19244998971E-03   5.12000119888E-03
 STRESS|      y        5.19244998971E-03  -3.11318881926E+00   1.35172421884E-01
 STRESS|      z        5.12000119888E-03   1.35172421884E-01  -6.75525137425E-01
 STRESS| 1/3 Trace                                            -2.19311206822E+00
 STRESS| Determinant                                          -5.81768659289E+00

 STRESS| Eigenvectors and eigenvalues of the analytical stress tensor [GPa]
 STRESS|                        1                   2                   3
 STRESS| Eigenvalues  -3.12073423555E+00  -2.79056318740E+00  -6.68038781699E-01
 STRESS|      x          -0.014848163021      0.999886524864      0.002543511339
 STRESS|      y           0.998367166369      0.014685175951      0.055202778229
 STRESS|      z          -0.055159162175     -0.003359018059      0.998471924405

 -------------------------------------------------------------------------------
 -                                                                             -
 -                                DBCSR STATISTICS                             -
 -                                                                             -
 -------------------------------------------------------------------------------
 COUNTER                                    TOTAL       BLAS       SMM       ACC
 flops     5 x     5 x   288          89145676800       0.0%    100.0%      0.0%
 flops     5 x     5 x   292          90383811200       0.0%    100.0%      0.0%
 flops    13 x    20 x   288         100526699520       0.0%    100.0%      0.0%
 flops    20 x    13 x   288         100624942080       0.0%    100.0%      0.0%
 flops     5 x    13 x   288         100738535040       0.0%    100.0%      0.0%
 flops    13 x     5 x   288         100763095680       0.0%    100.0%      0.0%
 flops    13 x    20 x   292         101922903680       0.0%    100.0%      0.0%
 flops    20 x    13 x   292         102022510720       0.0%    100.0%      0.0%
 flops     5 x    13 x   292         102137681360       0.0%    100.0%      0.0%
 flops    13 x     5 x   292         102162583120       0.0%    100.0%      0.0%
 flops    13 x    13 x   288         107679985920       0.0%    100.0%      0.0%
 flops    13 x    13 x   292         109175541280       0.0%    100.0%      0.0%
 flops    20 x     5 x   288         110555942400       0.0%    100.0%      0.0%
 flops     5 x    20 x   288         110603174400       0.0%    100.0%      0.0%
 flops    20 x     5 x   292         112091441600       0.0%    100.0%      0.0%
 flops     5 x    20 x   292         112139329600       0.0%    100.0%      0.0%
 flops    20 x    20 x   288         442771660800       0.0%    100.0%      0.0%
 flops    20 x    20 x   292         448921267200       0.0%    100.0%      0.0%
 flops     5 x     5 x   320         594304512000       0.0%    100.0%      0.0%
 flops    13 x    20 x   320         670177996800       0.0%    100.0%      0.0%
 flops    20 x    13 x   320         670832947200       0.0%    100.0%      0.0%
 flops     5 x    13 x   320         671590233600       0.0%    100.0%      0.0%
 flops    13 x     5 x   320         671753971200       0.0%    100.0%      0.0%
 flops    13 x    13 x   320         717866572800       0.0%    100.0%      0.0%
 flops    20 x     5 x   320         737039616000       0.0%    100.0%      0.0%
 flops     5 x    20 x   320         737354496000       0.0%    100.0%      0.0%
 flops    20 x    20 x   320        2951811072000       0.0%    100.0%      0.0%
 flops inhomo. stacks                           0       0.0%      0.0%      0.0%
 flops total                        10.967098E+12       0.0%    100.0%      0.0%
 flops max/rank                    180.994500E+09       0.0%    100.0%      0.0%
 matmuls inhomo. stacks                         0       0.0%      0.0%      0.0%
 matmuls total                          158266560       0.0%    100.0%      0.0%
 number of processed stacks                419840       0.0%    100.0%      0.0%
 average stack size                                     0.0     377.0       0.0
 marketing flops                    31.210751E+12
 -------------------------------------------------------------------------------
 # multiplications                             82
 max memory usage/rank               1.860932E+09
 # max total images/rank                        1
 # max 3D layers                                1
 # MPI messages exchanged                   73472
 MPI messages size (bytes):
  total size                       220.645474E+09
  min size                           2.762496E+06
  max size                           3.077120E+06
  average size                       3.003123E+06
 MPI breakdown and total messages size (bytes):
             size <=      128                   0                        0
       128 < size <=     8192                   0                        0
      8192 < size <=    32768                   0                        0
     32768 < size <=   131072                   0                        0
    131072 < size <=  4194304               73472             220645600000
   4194304 < size <= 16777216                   0                        0
  16777216 < size                               0                        0
 -------------------------------------------------------------------------------
 -                                                                             -
 -                      DBCSR MESSAGE PASSING PERFORMANCE                      -
 -                                                                             -
 -------------------------------------------------------------------------------
 ROUTINE             CALLS      AVE VOLUME [Bytes]
 MP_Bcast               28                     12.
 MP_Allreduce          648                     10.
 MP_Alltoall          2296                2010368.
 MP_ISend             2624                1329597.
 MP_IRecv             2624                1310413.
 -------------------------------------------------------------------------------

 -------------------------------------------------------------------------------
 -                                                                             -
 -                                DBM STATISTICS                               -
 -                                                                             -
 -------------------------------------------------------------------------------
    M  x    N  x    K                                          COUNT     PERCENT
 -------------------------------------------------------------------------------

 -------------------------------------------------------------------------------
 -                                                                             -
 -                                GRID STATISTICS                              -
 -                                                                             -
 -------------------------------------------------------------------------------
 LP    KERNEL             BACKEND                              COUNT     PERCENT
 3     collocate general  REF                               56907180      18.86%
 3     integrate general  REF                               56271174      18.65%
 2     collocate general  REF                               53802414      17.83%
 2     integrate general  REF                               53146287      17.62%
 4     collocate general  REF                               40012228      13.26%
 4     integrate general  REF                               39524274      13.10%
 6     integrate general  REF                                 693990       0.23%
 5     integrate general  REF                                 656127       0.22%
 7     integrate general  REF                                 487954       0.16%
 0     collocate general  REF                                 115968       0.04%
 0     integrate general  REF                                  57984       0.02%
 -------------------------------------------------------------------------------

 MEMORY| Estimated peak process memory [MiB]                                2086

 -------------------------------------------------------------------------------
 ----                             MULTIGRID INFO                            ----
 -------------------------------------------------------------------------------
 count for grid        1:         731755          cutoff [a.u.]          200.00
 count for grid        2:         806691          cutoff [a.u.]           66.67
 count for grid        3:         741449          cutoff [a.u.]           22.22
 count for grid        4:         831359          cutoff [a.u.]            7.41
 total gridlevel count  :        3111254

 -------------------------------------------------------------------------------
 -                                                                             -
 -                         MESSAGE PASSING PERFORMANCE                         -
 -                                                                             -
 -------------------------------------------------------------------------------

 ROUTINE             CALLS      AVE VOLUME [Bytes]
 MP_Group                4
 MP_Bcast              264                2236233.
 MP_Allreduce         1376                   1822.
 MP_Sync                85
 MP_Alltoall          1820               13720780.
 MP_SendRecv           252                  14136.
 MP_ISendRecv        20664                 113680.
 MP_Wait             46228
 MP_ISend            23904                 340012.
 MP_IRecv            23904                 340012.
 MP_Recv               385                2460160.
 MP_Write_All            3                1540656.
 -------------------------------------------------------------------------------


 -------------------------------------------------------------------------------
 -                                                                             -
 -                           R E F E R E N C E S                               -
 -                                                                             -
 -------------------------------------------------------------------------------
 
 CP2K version 2022.1, the CP2K developers group (2022).
 CP2K is freely available from https://www.cp2k.org/ .

 Kuehne,Thomas D.; Iannuzzi,Marcella; Del Ben,Mauro;
 Rybkin,Vladimir V.; Seewald,Patrick; Stein,Frederick; Laino,Teodoro;
 Khaliullin,Rustam Z.; Schuett,Ole; Schiffmann,Florian; Golze,Dorothea;
 Wilhelm,Jan; Chulkov,Sergey; Bani-Hashemian,Mohammad Hossein;
 Weber,Valery; Borstnik,Urban; Taillefumier,Mathieu;
 Jakobovits,Alice Shoshana; Lazzaro,Alfio; Pabst,Hans; Mueller,Tiziano;
 Schade,Robert; Guidon,Manuel; Andermatt,Samuel; Holmberg,Nico;
 Schenter,Gregory K.; Hehn,Anna; Bussy,Augustin; Belleflamme,Fabian;
 Tabacchi,Gloria; Gloess,Andreas; Lass,Michael; Bethune,Iain;
 Mundy,Christopher J.; Plessl,Christian; Watkins,Matt;
 VandeVondele,Joost; Krack,Matthias; Hutter,Juerg. 
 The Journal of Chemical Physics, 152 (19), (2020). 
 CP2K: An electronic structure and molecular dynamics software package -
 Quickstep: Efficient and accurate electronic structure calculations.
 https://doi.org/10.1063/5.0007045

 Goerigk, Lars; Hansen, Andreas; Bauer, Christoph; Ehrlich, Stephan;
 Najibi, Asim; Grimme, Stefan. , 19 (48), (2017). 
 A look at the density functional theory zoo with the advanced GMTKN55 database
 for general main group thermochemistry, kinetics and noncovalent interactions.
 https://doi.org/10.1039/C7CP04913G

 Schuett, Ole; Messmer, Peter; Hutter, Juerg; VandeVondele, Joost. 
 Electronic Structure Calculations on Graphics Processing Units, John
 Wiley & Sons, Ltd, 173-190 (2016). 
 GPU-Accelerated Sparse Matrix-Matrix Multiplication for
 Linear Scaling Density Functional Theory.
 https://doi.org/10.1002/9781118670712.ch8

 Heinecke, A; Henry, G; Hutchinson, M; Pabst, H. 
 Proceedings of Intl. Supercomputing Conference, 981-991 (2016). 
 LIBXSMM: Accelerating Small Matrix Multiplications
 by Runtime Code Generation.
 https://doi.org/10.1109/SC.2016.83

 Borstnik, U; VandeVondele, J; Weber, V; Hutter, J. 
 PARALLEL COMPUTING, 40 (5-6), 47-58 (2014). 
 Sparse matrix multiplication: The distributed block-compressed sparse
 row library.
 https://doi.org/10.1016/j.parco.2014.03.012

 Hutter, J; Iannuzzi, M; Schiffmann, F; VandeVondele, J. 
 WIREs Comput Mol Sci., 4 (1), 15-25 (2014). 
 CP2K: atomistic simulations of condensed matter systems.
 https://doi.org/10.1002/wcms.1159

 Marek, A; Blum, V; Johanni, R; Havu, V; Lang, B; Auckenthaler, T;
 Heinecke, A; Bungartz, H; Lederer, H. 
 Journal of Physics: Condensed Matter, 26 (21), (2014). 
 The ELPA library: scalable parallel eigenvalue solutions for
 electronic structure
 theory and computational science.
 https://doi.org/10.1088/0953-8984/26/21/213201

 Grimme, S; Ehrlich, S; Goerigk, L. 
 JOURNAL OF COMPUTATIONAL CHEMISTRY, 32, 1456 (2011). 
 Effect of the damping function in dispersion corrected density functional theory.
 https://doi.org/10.1002/jcc.21759

 Grimme, S; Antony, J; Ehrlich, S; Krieg, H. 
 JOURNAL OF CHEMICAL PHYSICS, 132 (15), 154104 (2010). 
 A consistent and accurate ab initio parametrization of density
 functional dispersion correction (DFT-D) for the 94 elements H-Pu.
 https://doi.org/10.1063/1.3382344

 VandeVondele, J; Hutter, J. 
 JOURNAL OF CHEMICAL PHYSICS, 127 (11), 114105 (2007). 
 Gaussian basis sets for accurate calculations on molecular systems in
 gas and condensed phases.
 https://doi.org/10.1063/1.2770708

 Krack, M. 
 THEORETICAL CHEMISTRY ACCOUNTS, 114 (1-3), 145-152 (2005). 
 Pseudopotentials for H to Kr optimized for gradient-corrected
 exchange-correlation functionals.
 https://doi.org/10.1007/s00214-005-0655-y

 VandeVondele, J; Krack, M; Mohamed, F; Parrinello, M; Chassaing, T;
 Hutter, J. COMPUTER PHYSICS COMMUNICATIONS, 167 (2), 103-128 (2005). 
 QUICKSTEP: Fast and accurate density functional calculations using a
 mixed Gaussian and plane waves approach.
 https://doi.org/10.1016/j.cpc.2004.12.014

 Frigo, M; Johnson, SG. 
 PROCEEDINGS OF THE IEEE, 93 (2), 216-231 (2005). 
 The design and implementation of FFTW3.
 https://doi.org/10.1109/JPROC.2004.840301

 Hartwigsen, C; Goedecker, S; Hutter, J. 
 PHYSICAL REVIEW B, 58 (7), 3641-3662 (1998). 
 Relativistic separable dual-space Gaussian pseudopotentials from H to Rn.
 https://doi.org/10.1103/PhysRevB.58.3641

 Lippert, G; Hutter, J; Parrinello, M. 
 MOLECULAR PHYSICS, 92 (3), 477-487 (1997). 
 A hybrid Gaussian and plane wave density functional scheme.
 https://doi.org/10.1080/002689797170220

 Perdew, JP; Burke, K; Ernzerhof, M. 
 PHYSICAL REVIEW LETTERS, 77 (18), 3865-3868 (1996). 
 Generalized gradient approximation made simple.
 https://doi.org/10.1103/PhysRevLett.77.3865

 Goedecker, S; Teter, M; Hutter, J. 
 PHYSICAL REVIEW B, 54 (3), 1703-1710 (1996). 
 Separable dual-space Gaussian pseudopotentials.
 https://doi.org/10.1103/PhysRevB.54.1703


 -------------------------------------------------------------------------------
 -                                                                             -
 -                                T I M I N G                                  -
 -                                                                             -
 -------------------------------------------------------------------------------
 SUBROUTINE                       CALLS  ASD         SELF TIME        TOTAL TIME
                                MAXIMUM       AVERAGE  MAXIMUM  AVERAGE  MAXIMUM
 CP2K                                 1  1.0    0.031    0.041  970.670  970.672
 qs_forces                            1  2.0    0.002    0.003  970.194  970.196
 qs_energies                          1  3.0    0.000    0.000  957.706  957.717
 scf_env_do_scf                       1  4.0    0.000    0.001  949.431  949.676
 scf_env_do_scf_inner_loop           81  5.0    0.004    0.012  949.431  949.675
 qs_scf_new_mos                      81  6.0    0.005    0.012  385.968  386.622
 eigensolver                         81  7.0    0.007    0.012  358.691  359.048
 rebuild_ks_matrix                   82  7.0    0.000    0.000  299.790  299.849
 qs_ks_build_kohn_sham_matrix        82  8.0    0.013    0.016  299.789  299.849
 qs_ks_update_qs_env                 81  6.0    0.001    0.001  291.841  291.901
 qs_rho_update_rho_low               82  6.0    0.001    0.001  257.011  257.047
 calculate_rho_elec                  82  7.0    0.192    0.230  257.011  257.047
 sum_up_and_integrate                82  9.0    0.345    0.427  251.582  251.636
 integrate_v_rspace                  82 10.0    0.003    0.004  251.237  251.324
 grid_collocate_task_list            82  8.0  225.119  233.032  225.119  233.032
 grid_integrate_task_list            82 11.0  219.333  225.392  219.333  225.392
 cp_fm_diag_elpa                     81  8.0    0.001    0.001  210.491  211.017
 cp_fm_diag_elpa_base                81  9.0  207.266  208.044  210.158  210.229
 cp_fm_triangular_multiply          243  8.0  145.196  147.152  145.196  147.152
 pw_transfer                       1640 10.9    0.117    0.164   45.268   46.296
 fft_wrap_pw1pw2                   1476 12.0    0.014    0.017   44.750   45.737
 rs_pw_transfer                     660 10.5    0.007    0.008   40.554   45.296
 fft_wrap_pw1pw2_200                984 13.3    4.029    4.394   43.093   44.051
 qs_vxc_create                       82  9.0    0.003    0.003   42.502   42.743
 xc_vxc_pw_create                    82 10.0    0.751    0.789   42.500   42.741
 fft3d_ps                          1476 14.0   16.318   18.348   33.069   34.271
 density_rs2pw                       82  8.0    0.005    0.006   29.135   33.853
 xc_pw_derive                       492 12.0    0.008    0.009   27.096   28.457
 xc_rho_set_and_dset_create          82 11.0    0.399    0.426   22.793   24.340
 potential_pw2rs                     82 11.0    0.031    0.036   23.682   23.756
 mp_waitany                       23904 12.4   17.963   22.675   17.963   22.675
 rs_pw_transfer_RS2PW_200            84 10.0    5.237    5.599   16.616   21.408
 cp_dbcsr_plus_fm_fm_t_native        82  8.0    0.004    0.008   19.756   20.579
 calculate_dm_sparse                 81  7.0    0.025    0.032   19.832   20.569
 -------------------------------------------------------------------------------

 The number of warnings for this run is : 1
 
 -------------------------------------------------------------------------------
  **** **** ******  **  PROGRAM ENDED AT                 2023-11-26 17:39:50.483
 ***** ** ***  *** **   PROGRAM RAN ON                                     cu054
 **    ****   ******    PROGRAM RAN BY                                     jxzhu
 ***** **    ** ** **   PROGRAM PROCESS ID                                 44491
  **** **  *******  **  PROGRAM STOPPED IN /public/home/jxzhu/tmp_calc/af2075565
                                           805657d94fa4669dad6f4b174b0a4fb/calc/
                                           001000.000/pbc
