 DBCSR| CPU Multiplication driver                                           XSMM
 DBCSR| Multrec recursion limit                                              512
 DBCSR| Multiplication stack size                                           1000
 DBCSR| Maximum elements for images                                    UNLIMITED
 DBCSR| Multiplicative factor virtual images                                   1
 DBCSR| Use multiplication densification                                       T
 DBCSR| Multiplication size stacks                                             3
 DBCSR| Use memory pool for CPU allocation                                     F
 DBCSR| Number of 3D layers                                               SINGLE
 DBCSR| Use MPI memory allocation                                              F
 DBCSR| Use RMA algorithm                                                      F
 DBCSR| Use Communication thread                                               T
 DBCSR| Communication thread load                                             87
 DBCSR| MPI: My node id                                                        0
 DBCSR| MPI: Number of nodes                                                 128
 DBCSR| OMP: Current number of threads                                         1
 DBCSR| OMP: Max number of threads                                             1
 DBCSR| Split modifier for TAS multiplication algorithm                  1.0E+00


  **** **** ******  **  PROGRAM STARTED AT               2023-12-03 06:58:01.177
 ***** ** ***  *** **   PROGRAM STARTED ON                                 cu001
 **    ****   ******    PROGRAM STARTED BY                                 jxzhu
 ***** **    ** ** **   PROGRAM PROCESS ID                                 50267
  **** **  *******  **  PROGRAM STARTED IN /public/home/jxzhu/tmp_calc/dc7ffe131
                                           b817a352c1756235fe5b69672d9dc86/calc/
                                           002900.000/search_hi.000000

 CP2K| version string:                                       CP2K version 2022.1
 CP2K| source code revision number:                                  git:2caeb6f
 CP2K| cp2kflags: omp libint fftw3 libxc elpa parallel mpi3 scalapack cosma xsmm
 CP2K|             plumed2 spglib mkl sirius libvori libbqb
 CP2K| is freely available from                            https://www.cp2k.org/
 CP2K| Program compiled at                           Mon Jul 3 17:37:06 CST 2023
 CP2K| Program compiled on                                                 mu003
 CP2K| Program compiled for                                                local
 CP2K| Data directory path                             /public/home/jxzhu/basis/
 CP2K| Input file name                                                 input.inp
 
 GLOBAL| Force Environment number                                              1
 GLOBAL| Basis set file name                                        BASIS_MOLOPT
 GLOBAL| Potential file name                                      GTH_POTENTIALS
 GLOBAL| MM Potential file name                                     MM_POTENTIAL
 GLOBAL| Coordinate file name                                          coord.xyz
 GLOBAL| Method name                                                        CP2K
 GLOBAL| Project name                                                       cp2k
 GLOBAL| Run type                                                   ENERGY_FORCE
 GLOBAL| FFT library                                                       FFTW3
 GLOBAL| Diagonalization library                                            ELPA
 GLOBAL| Minimum number of eigenvectors for ELPA usage                        16
 GLOBAL| Orthonormality check for eigenvectors                          DISABLED
 GLOBAL| Matrix multiplication library                                     COSMA
 GLOBAL| All-to-all communication in single precision                          F
 GLOBAL| FFTs using library dependent lengths                                  T
 GLOBAL| Grid backend                                                       AUTO
 GLOBAL| Global print level                                               MEDIUM
 GLOBAL| MPI I/O enabled                                                       T
 GLOBAL| Total number of message passing processes                           128
 GLOBAL| Number of threads for this process                                    1
 GLOBAL| This output is from process                                           0
 GLOBAL| Stack size for threads created by OpenMP (OMP_STACKSIZE)        default
 GLOBAL| CPU model name                 Intel(R) Xeon(R) Gold 6338 CPU @ 2.00GHz
 GLOBAL| CPUID                                                              1003

 MEMORY| system memory details [Kb]
 MEMORY|                        rank 0           min           max       average
 MEMORY| MemTotal            263619172     263619172     263619172     263619172
 MEMORY| MemFree             218649500     215698140     218652600     217174249
 MEMORY| Buffers                    20            20            36            28
 MEMORY| Cached                1490816        705784       1490816       1098300
 MEMORY| Slab                  1409312       1409312       1429316       1419314
 MEMORY| SReclaimable           244804        230844        244804        237824
 MEMORY| MemLikelyFree       220385140     216634804     220388240     218510401


 *** Fundamental physical constants (SI units) ***

 *** Literature: B. J. Mohr and B. N. Taylor,
 ***             CODATA recommended values of the fundamental physical
 ***             constants: 2006, Web Version 5.1
 ***             http://physics.nist.gov/constants

 Speed of light in vacuum [m/s]                             2.99792458000000E+08
 Magnetic constant or permeability of vacuum [N/A**2]       1.25663706143592E-06
 Electric constant or permittivity of vacuum [F/m]          8.85418781762039E-12
 Planck constant (h) [J*s]                                  6.62606896000000E-34
 Planck constant (h-bar) [J*s]                              1.05457162825177E-34
 Elementary charge [C]                                      1.60217648700000E-19
 Electron mass [kg]                                         9.10938215000000E-31
 Electron g factor [ ]                                     -2.00231930436220E+00
 Proton mass [kg]                                           1.67262163700000E-27
 Fine-structure constant                                    7.29735253760000E-03
 Rydberg constant [1/m]                                     1.09737315685270E+07
 Avogadro constant [1/mol]                                  6.02214179000000E+23
 Boltzmann constant [J/K]                                   1.38065040000000E-23
 Atomic mass unit [kg]                                      1.66053878200000E-27
 Bohr radius [m]                                            5.29177208590000E-11

 *** Conversion factors ***

 [u] -> [a.u.]                                              1.82288848426455E+03
 [Angstrom] -> [Bohr] = [a.u.]                              1.88972613288564E+00
 [a.u.] = [Bohr] -> [Angstrom]                              5.29177208590000E-01
 [a.u.] -> [s]                                              2.41888432650478E-17
 [a.u.] -> [fs]                                             2.41888432650478E-02
 [a.u.] -> [J]                                              4.35974393937059E-18
 [a.u.] -> [N]                                              8.23872205491840E-08
 [a.u.] -> [K]                                              3.15774647902944E+05
 [a.u.] -> [kJ/mol]                                         2.62549961709828E+03
 [a.u.] -> [kcal/mol]                                       6.27509468713739E+02
 [a.u.] -> [Pa]                                             2.94210107994716E+13
 [a.u.] -> [bar]                                            2.94210107994716E+08
 [a.u.] -> [atm]                                            2.90362800883016E+08
 [a.u.] -> [eV]                                             2.72113838565563E+01
 [a.u.] -> [Hz]                                             6.57968392072181E+15
 [a.u.] -> [1/cm] (wave numbers)                            2.19474631370540E+05
 [a.u./Bohr**2] -> [1/cm]                                   5.14048714338585E+03
 

 CELL_TOP| Volume [angstrom^3]:                                     17614.982639
 CELL_TOP| Vector a [angstrom    16.869     0.000     0.000   |a| =    16.869000
 CELL_TOP| Vector b [angstrom    -8.434    14.609     0.000   |b| =    16.869015
 CELL_TOP| Vector c [angstrom     0.000     0.000    71.478   |c| =    71.478000
 CELL_TOP| Angle (b,c), alpha [degree]:                                90.000000
 CELL_TOP| Angle (a,c), beta  [degree]:                                90.000000
 CELL_TOP| Angle (a,b), gamma [degree]:                               119.999970
 CELL_TOP| Numerically orthorhombic:                                          NO
 
 GENERATE|  Preliminary Number of Bonds generated:                             0
 GENERATE|  Achieved consistency in connectivity generation.

 CELL| Volume [angstrom^3]:                                         17614.982639
 CELL| Vector a [angstrom]:      16.869     0.000     0.000   |a| =    16.869000
 CELL| Vector b [angstrom]:      -8.434    14.609     0.000   |b| =    16.869015
 CELL| Vector c [angstrom]:       0.000     0.000    71.478   |c| =    71.478000
 CELL| Angle (b,c), alpha [degree]:                                    90.000000
 CELL| Angle (a,c), beta  [degree]:                                    90.000000
 CELL| Angle (a,b), gamma [degree]:                                   119.999970
 CELL| Numerically orthorhombic:                                              NO

 CELL_REF| Volume [angstrom^3]:                                     17614.982639
 CELL_REF| Vector a [angstrom    16.869     0.000     0.000   |a| =    16.869000
 CELL_REF| Vector b [angstrom    -8.434    14.609     0.000   |b| =    16.869015
 CELL_REF| Vector c [angstrom     0.000     0.000    71.478   |c| =    71.478000
 CELL_REF| Angle (b,c), alpha [degree]:                                90.000000
 CELL_REF| Angle (a,c), beta  [degree]:                                90.000000
 CELL_REF| Angle (a,b), gamma [degree]:                               119.999970
 CELL_REF| Numerically orthorhombic:                                          NO

 *******************************************************************************
 *******************************************************************************
 **                                                                           **
 **     #####                         ##              ##                      **
 **    ##   ##            ##          ##              ##                      **
 **   ##     ##                       ##            ######                    **
 **   ##     ##  ##   ##  ##   #####  ##  ##   ####   ##    #####    #####    **
 **   ##     ##  ##   ##  ##  ##      ## ##   ##      ##   ##   ##  ##   ##   **
 **   ##  ## ##  ##   ##  ##  ##      ####     ###    ##   ######   ######    **
 **    ##  ###   ##   ##  ##  ##      ## ##      ##   ##   ##       ##        **
 **     #######   #####   ##   #####  ##  ##  ####    ##    #####   ##        **
 **           ##                                                    ##        **
 **                                                                           **
 **                                                ... make the atoms dance   **
 **                                                                           **
 **            Copyright (C) by CP2K developers group (2000-2022)             **
 **                      J. Chem. Phys. 152, 194103 (2020)                    **
 **                                                                           **
 *******************************************************************************

 DFT| Spin restricted Kohn-Sham (RKS) calculation                            RKS
 DFT| Multiplicity                                                             1
 DFT| Number of spin states                                                    1
 DFT| Charge                                                                   0
 DFT| Self-interaction correction (SIC)                                       NO
 DFT| Cutoffs: density                                              1.000000E-10
 DFT|          gradient                                             1.000000E-10
 DFT|          tau                                                  1.000000E-10
 DFT|          cutoff_smoothing_range                               0.000000E+00
 DFT| XC density smoothing                                                  NONE
 DFT| XC derivatives                                                          PW

 FUNCTIONAL| PBE:
 FUNCTIONAL| J.P.Perdew, K.Burke, M.Ernzerhof, Phys. Rev. Letter, vol. 77, n 18,
 FUNCTIONAL|  pp. 3865-3868, (1996){spin unpolarized}                           

 vdW POTENTIAL|                                                   Pair Potential
 vdW POTENTIAL|          DFT-D3 (Version 3.1)
 vdW POTENTIAL|          Potential Form: S. Grimme et al, JCP 132: 154104 (2010)
 vdW POTENTIAL|          Zero Damping
 vdW POTENTIAL|          Cutoff Radius [Bohr]:                             20.00
 vdW POTENTIAL|          s6 Scaling Factor:                               1.0000
 vdW POTENTIAL|          sr6 Scaling Factor:                              1.2170
 vdW POTENTIAL|          s8 Scaling Factor:                               0.7220
 vdW POTENTIAL|          Cutoff for CN calculation:                   0.1000E-05

 QS| Method:                                                                 GPW
 QS| Density plane wave grid type                        NON-SPHERICAL FULLSPACE
 QS| Number of grid levels:                                                    4
 QS| Density cutoff [a.u.]:                                                200.0
 QS| Multi grid cutoff [a.u.]: 1) grid level                               200.0
 QS|                           2) grid level                                66.7
 QS|                           3) grid level                                22.2
 QS|                           4) grid level                                 7.4
 QS| Grid level progression factor:                                          3.0
 QS| Relative density cutoff [a.u.]:                                        20.0
 QS| Interaction thresholds: eps_pgf_orb:                                3.2E-07
 QS|                         eps_filter_matrix:                          0.0E+00
 QS|                         eps_core_charge:                            1.0E-15
 QS|                         eps_rho_gspace:                             1.0E-13
 QS|                         eps_rho_rspace:                             1.0E-13
 QS|                         eps_gvg_rspace:                             3.2E-07
 QS|                         eps_ppl:                                    1.0E-02
 QS|                         eps_ppnl:                                   3.2E-09


 ATOMIC KIND INFORMATION

  1. Atomic kind: O                                     Number of atoms:      97

     Orbital Basis Set                                        DZVP-MOLOPT-SR-GTH

       Number of orbital shell sets:                                           1
       Number of orbital shells:                                               5
       Number of primitive Cartesian functions:                                5
       Number of Cartesian basis functions:                                   14
       Number of spherical basis functions:                                   13
       Norm type:                                                              2

       Normalised Cartesian orbitals:

                        Set   Shell   Orbital            Exponent    Coefficient

                          1       1    2s               10.389228       0.396646
                                                         3.849621       0.208811
                                                         1.388401      -0.301641
                                                         0.496955      -0.274061
                                                         0.162492      -0.033677

                          1       2    3s               10.389228       0.303673
                                                         3.849621       0.240943
                                                         1.388401      -0.313066
                                                         0.496955      -0.043055
                                                         0.162492       0.213991

                          1       3    3px              10.389228      -1.530415
                                                         3.849621      -1.371928
                                                         1.388401      -0.761951
                                                         0.496955      -0.253695
                                                         0.162492      -0.035541
                          1       3    3py              10.389228      -1.530415
                                                         3.849621      -1.371928
                                                         1.388401      -0.761951
                                                         0.496955      -0.253695
                                                         0.162492      -0.035541
                          1       3    3pz              10.389228      -1.530415
                                                         3.849621      -1.371928
                                                         1.388401      -0.761951
                                                         0.496955      -0.253695
                                                         0.162492      -0.035541

                          1       4    4px              10.389228      -0.565392
                                                         3.849621      -0.038231
                                                         1.388401      -0.382373
                                                         0.496955       0.179070
                                                         0.162492       0.122714
                          1       4    4py              10.389228      -0.565392
                                                         3.849621      -0.038231
                                                         1.388401      -0.382373
                                                         0.496955       0.179070
                                                         0.162492       0.122714
                          1       4    4pz              10.389228      -0.565392
                                                         3.849621      -0.038231
                                                         1.388401      -0.382373
                                                         0.496955       0.179070
                                                         0.162492       0.122714

                          1       5    4dx2             10.389228       1.867377
                                                         3.849621       0.670994
                                                         1.388401       1.353441
                                                         0.496955       0.273538
                                                         0.162492       0.006620
                          1       5    4dxy             10.389228       3.234392
                                                         3.849621       1.162195
                                                         1.388401       2.344229
                                                         0.496955       0.473781
                                                         0.162492       0.011466
                          1       5    4dxz             10.389228       3.234392
                                                         3.849621       1.162195
                                                         1.388401       2.344229
                                                         0.496955       0.473781
                                                         0.162492       0.011466
                          1       5    4dy2             10.389228       1.867377
                                                         3.849621       0.670994
                                                         1.388401       1.353441
                                                         0.496955       0.273538
                                                         0.162492       0.006620
                          1       5    4dyz             10.389228       3.234392
                                                         3.849621       1.162195
                                                         1.388401       2.344229
                                                         0.496955       0.473781
                                                         0.162492       0.011466
                          1       5    4dz2             10.389228       1.867377
                                                         3.849621       0.670994
                                                         1.388401       1.353441
                                                         0.496955       0.273538
                                                         0.162492       0.006620

       Atomic covalent radius [Angstrom]:                                  0.730

       Atomic van der Waals radius [Angstrom]:                             1.520

     GTH Potential information for                                    GTH-PBE-q6

       Description:                       Goedecker-Teter-Hutter pseudopotential
                                           Goedecker et al., PRB 54, 1703 (1996)
                                          Hartwigsen et al., PRB 58, 3641 (1998)
                                                      Krack, TCA 114, 145 (2005)

       Gaussian exponent of the core charge distribution:               8.360253
       Electronic configuration (s p d ...):                               2   4

       Parameters of the local part of the GTH pseudopotential:

                          rloc        C1          C2          C3          C4
                        0.244554  -16.667215    2.487311

       Parameters of the non-local part of the GTH pseudopotential:

                   l      r(l)      h(i,j,l)

                   0    0.220956   18.337458
                   1    0.211332

  2. Atomic kind: H                                     Number of atoms:     194

     Orbital Basis Set                                        DZVP-MOLOPT-SR-GTH

       Number of orbital shell sets:                                           1
       Number of orbital shells:                                               3
       Number of primitive Cartesian functions:                                5
       Number of Cartesian basis functions:                                    5
       Number of spherical basis functions:                                    5
       Norm type:                                                              2

       Normalised Cartesian orbitals:

                        Set   Shell   Orbital            Exponent    Coefficient

                          1       1    2s               10.068468      -0.133023
                                                         2.680223      -0.177618
                                                         0.791502      -0.258419
                                                         0.239116      -0.107525
                                                         0.082193      -0.014019

                          1       2    3s               10.068468       0.344673
                                                         2.680223       1.819821
                                                         0.791502      -0.999069
                                                         0.239116       0.017430
                                                         0.082193       0.082660

                          1       3    3px              10.068468       0.155326
                                                         2.680223       0.367157
                                                         0.791502       0.311480
                                                         0.239116       0.080105
                                                         0.082193       0.033440
                          1       3    3py              10.068468       0.155326
                                                         2.680223       0.367157
                                                         0.791502       0.311480
                                                         0.239116       0.080105
                                                         0.082193       0.033440
                          1       3    3pz              10.068468       0.155326
                                                         2.680223       0.367157
                                                         0.791502       0.311480
                                                         0.239116       0.080105
                                                         0.082193       0.033440

       Atomic covalent radius [Angstrom]:                                  0.320

       Atomic van der Waals radius [Angstrom]:                             1.090

     GTH Potential information for                                    GTH-PBE-q1

       Description:                       Goedecker-Teter-Hutter pseudopotential
                                           Goedecker et al., PRB 54, 1703 (1996)
                                          Hartwigsen et al., PRB 58, 3641 (1998)
                                                      Krack, TCA 114, 145 (2005)

       Gaussian exponent of the core charge distribution:              12.500000
       Electronic configuration (s p d ...):                                   1

       Parameters of the local part of the GTH pseudopotential:

                          rloc        C1          C2          C3          C4
                        0.200000   -4.178900    0.724463

  3. Atomic kind: Pt                                    Number of atoms:     216

     Orbital Basis Set                      DZVP-A5-Q10-323-MOL-T1-DERIVED_SET-1

       Number of orbital shell sets:                                           1
       Number of orbital shells:                                               6
       Number of primitive Cartesian functions:                                5
       Number of Cartesian basis functions:                                   23
       Number of spherical basis functions:                                   20
       Norm type:                                                              2

       Normalised Cartesian orbitals:

                        Set   Shell   Orbital            Exponent    Coefficient

                          1       1    2s                2.521825       0.177473
                                                         1.453920      -0.063399
                                                         0.614053      -0.407089
                                                         0.232656       0.262254
                                                         0.074788       0.047371

                          1       2    3s                2.521825      -0.049056
                                                         1.453920       0.044904
                                                         0.614053      -0.009756
                                                         0.232656      -0.144709
                                                         0.074788       0.144085

                          1       3    3px               2.521825      -0.317572
                                                         1.453920       0.534826
                                                         0.614053      -0.489458
                                                         0.232656       0.245631
                                                         0.074788       0.018221
                          1       3    3py               2.521825      -0.317572
                                                         1.453920       0.534826
                                                         0.614053      -0.489458
                                                         0.232656       0.245631
                                                         0.074788       0.018221
                          1       3    3pz               2.521825      -0.317572
                                                         1.453920       0.534826
                                                         0.614053      -0.489458
                                                         0.232656       0.245631
                                                         0.074788       0.018221

                          1       4    4dx2              2.521825       3.008522
                                                         1.453920      -1.224251
                                                         0.614053       0.225691
                                                         0.232656       0.125144
                                                         0.074788      -0.015348
                          1       4    4dxy              2.521825       5.210912
                                                         1.453920      -2.120465
                                                         0.614053       0.390909
                                                         0.232656       0.216756
                                                         0.074788      -0.026584
                          1       4    4dxz              2.521825       5.210912
                                                         1.453920      -2.120465
                                                         0.614053       0.390909
                                                         0.232656       0.216756
                                                         0.074788      -0.026584
                          1       4    4dy2              2.521825       3.008522
                                                         1.453920      -1.224251
                                                         0.614053       0.225691
                                                         0.232656       0.125144
                                                         0.074788      -0.015348
                          1       4    4dyz              2.521825       5.210912
                                                         1.453920      -2.120465
                                                         0.614053       0.390909
                                                         0.232656       0.216756
                                                         0.074788      -0.026584
                          1       4    4dz2              2.521825       3.008522
                                                         1.453920      -1.224251
                                                         0.614053       0.225691
                                                         0.232656       0.125144
                                                         0.074788      -0.015348

                          1       5    5dx2              2.521825       0.698026
                                                         1.453920      -1.511486
                                                         0.614053      -0.335394
                                                         0.232656      -0.025564
                                                         0.074788      -0.002699
                          1       5    5dxy              2.521825       1.209017
                                                         1.453920      -2.617970
                                                         0.614053      -0.580920
                                                         0.232656      -0.044277
                                                         0.074788      -0.004674
                          1       5    5dxz              2.521825       1.209017
                                                         1.453920      -2.617970
                                                         0.614053      -0.580920
                                                         0.232656      -0.044277
                                                         0.074788      -0.004674
                          1       5    5dy2              2.521825       0.698026
                                                         1.453920      -1.511486
                                                         0.614053      -0.335394
                                                         0.232656      -0.025564
                                                         0.074788      -0.002699
                          1       5    5dyz              2.521825       1.209017
                                                         1.453920      -2.617970
                                                         0.614053      -0.580920
                                                         0.232656      -0.044277
                                                         0.074788      -0.004674
                          1       5    5dz2              2.521825       0.698026
                                                         1.453920      -1.511486
                                                         0.614053      -0.335394
                                                         0.232656      -0.025564
                                                         0.074788      -0.002699

                          1       6    6dx2              2.521825       0.831079
                                                         1.453920      -0.709226
                                                         0.614053      -0.137351
                                                         0.232656       0.068642
                                                         0.074788       0.011745
                          1       6    6dxy              2.521825       1.439472
                                                         1.453920      -1.228415
                                                         0.614053      -0.237899
                                                         0.232656       0.118891
                                                         0.074788       0.020343
                          1       6    6dxz              2.521825       1.439472
                                                         1.453920      -1.228415
                                                         0.614053      -0.237899
                                                         0.232656       0.118891
                                                         0.074788       0.020343
                          1       6    6dy2              2.521825       0.831079
                                                         1.453920      -0.709226
                                                         0.614053      -0.137351
                                                         0.232656       0.068642
                                                         0.074788       0.011745
                          1       6    6dyz              2.521825       1.439472
                                                         1.453920      -1.228415
                                                         0.614053      -0.237899
                                                         0.232656       0.118891
                                                         0.074788       0.020343
                          1       6    6dz2              2.521825       0.831079
                                                         1.453920      -0.709226
                                                         0.614053      -0.137351
                                                         0.232656       0.068642
                                                         0.074788       0.011745

       Atomic covalent radius [Angstrom]:                                  1.300

       Atomic van der Waals radius [Angstrom]:                             1.750

     GTH Potential information for                                   GTH-PBE-q10

       Description:                       Goedecker-Teter-Hutter pseudopotential
                                           Goedecker et al., PRB 54, 1703 (1996)
                                          Hartwigsen et al., PRB 58, 3641 (1998)
                                                      Krack, TCA 114, 145 (2005)

       Gaussian exponent of the core charge distribution:               1.317676
       Electronic configuration (s p d ...):                           1   0   9

       Parameters of the local part of the GTH pseudopotential:

                          rloc        C1          C2          C3          C4
                        0.616000   11.313635

       Parameters of the non-local part of the GTH pseudopotential:

                   l      r(l)      h(i,j,l)

                   0    0.550904    4.733491   -1.784594
                                   -1.784594    2.303901
                   1    0.674138    2.534798   -1.778066
                                   -1.778066    2.103836
                   2    0.457392   -7.264011    2.558665
                                    2.558665   -2.901253


 MOLECULE KIND INFORMATION


 All atoms are their own molecule, skipping detailed information


 TOTAL NUMBERS AND MAXIMUM NUMBERS

  Total number of            - Atomic kinds:                                   3
                             - Atoms:                                        507
                             - Shell sets:                                   507
                             - Shells:                                      2363
                             - Primitive Cartesian functions:               2535
                             - Cartesian basis functions:                   7296
                             - Spherical basis functions:                   6551

  Maximum angular momentum of- Orbital basis functions:                        2
                             - Local part of the GTH pseudopotential:          2
                             - Non-local part of the GTH pseudopotential:      4


 MODULE QUICKSTEP:  ATOMIC COORDINATES IN angstrom

 Atom  Kind  Element       X           Y           Z          Z(eff)       Mass
    1   1 O    8     -18.620001   -0.800000   35.357997       6.0000     15.9994
    2   2 H    1     -17.880001   -1.260000   34.937999       1.0000      1.0079
    3   2 H    1     -19.330002   -1.430000   35.338001       1.0000      1.0079
    4   1 O    8      29.240000   16.990002   37.878000       6.0000     15.9994
    5   2 H    1      29.210003   18.040001   37.847999       1.0000      1.0079
    6   2 H    1      28.360003   16.720001   37.787998       1.0000      1.0079
    7   1 O    8      -2.340000  -19.680000   38.877998       6.0000     15.9994
    8   2 H    1      -2.130000  -19.030001   39.597999       1.0000      1.0079
    9   2 H    1      -2.050000  -19.290001   38.007999       1.0000      1.0079
   10   1 O    8      -9.740001  -18.750002   29.397998       6.0000     15.9994
   11   2 H    1     -10.050000  -19.680000   29.658000       1.0000      1.0079
   12   2 H    1      -8.820001  -18.690001   29.687999       1.0000      1.0079
   13   1 O    8      11.320001   17.660000   29.047996       6.0000     15.9994
   14   2 H    1      11.120001   16.700001   29.248000       1.0000      1.0079
   15   2 H    1      12.220000   17.850000   29.448001       1.0000      1.0079
   16   1 O    8     -23.530003   17.960001   32.838001       6.0000     15.9994
   17   2 H    1     -23.050001   17.830002   33.677999       1.0000      1.0079
   18   2 H    1     -24.300001   17.330000   32.827998       1.0000      1.0079
   19   1 O    8     -16.800001   24.310001   36.247999       6.0000     15.9994
   20   2 H    1     -16.570000   23.470001   35.758001       1.0000      1.0079
   21   2 H    1     -17.730001   24.220001   36.567998       1.0000      1.0079
   22   1 O    8      -3.440000  -13.170000   35.428001       6.0000     15.9994
   23   2 H    1      -3.770000  -12.680000   36.267999       1.0000      1.0079
   24   2 H    1      -3.020000  -13.900002   35.828000       1.0000      1.0079
   25   1 O    8     -16.360001   41.320000   32.978000       6.0000     15.9994
   26   2 H    1     -17.000000   41.990005   33.347999       1.0000      1.0079
   27   2 H    1       0.450000   41.470001   32.037998       1.0000      1.0079
   28   1 O    8       7.320001    6.530001   32.607999       6.0000     15.9994
   29   2 H    1      -2.010000   20.670002   32.727998       1.0000      1.0079
   30   2 H    1       7.660000    6.070001   31.807998       1.0000      1.0079
   31   1 O    8       7.110000    8.060000   30.197997       6.0000     15.9994
   32   2 H    1       6.410000    7.370000   30.227996       1.0000      1.0079
   33   2 H    1       7.060000    8.280001   31.147998       1.0000      1.0079
   34   1 O    8     -22.260000    0.430000   33.068000       6.0000     15.9994
   35   2 H    1     -21.350000    0.800000   33.017999       1.0000      1.0079
   36   2 H    1     -22.180002   -0.430000   33.517997       1.0000      1.0079
   37   1 O    8       0.250000    1.080000   33.107999       6.0000     15.9994
   38   2 H    1      -0.440000    0.630000   32.587999       1.0000      1.0079
   39   2 H    1       0.970000    0.430000   33.177999       1.0000      1.0079
   40   1 O    8      -5.950000   10.600000   37.577998       6.0000     15.9994
   41   2 H    1      -5.650000    9.790000   38.117999       1.0000      1.0079
   42   2 H    1      -6.840000   10.410000   37.227998       1.0000      1.0079
   43   1 O    8     -40.620003   10.360001   29.787998       6.0000     15.9994
   44   2 H    1     -40.000000    9.670001   29.407996       1.0000      1.0079
   45   2 H    1     -40.030003   11.140001   29.728000       1.0000      1.0079
   46   1 O    8     -17.480000   -1.250000   39.657998       6.0000     15.9994
   47   2 H    1     -17.630001   -2.230000   39.797998       1.0000      1.0079
   48   2 H    1     -16.570000   -1.280000   39.197999       1.0000      1.0079
   49   1 O    8     -21.870001   37.800003   39.128000       6.0000     15.9994
   50   2 H    1      -4.120000   37.930000   38.728000       1.0000      1.0079
   51   2 H    1     -22.150002   36.959999   38.677999       1.0000      1.0079
   52   1 O    8     -25.180000    2.480000   36.767999       6.0000     15.9994
   53   2 H    1     -24.480001    2.360000   36.107999       1.0000      1.0079
   54   2 H    1     -24.940002    3.350000   37.248000       1.0000      1.0079
   55   1 O    8     -13.000001    7.080000   34.427999       6.0000     15.9994
   56   2 H    1     -12.500000    6.890000   35.268001       1.0000      1.0079
   57   2 H    1     -13.900002    7.370000   34.767997       1.0000      1.0079
   58   1 O    8       2.370000   -8.330001   37.838001       6.0000     15.9994
   59   2 H    1       2.540000   -8.600000   36.917999       1.0000      1.0079
   60   2 H    1       1.750000   -8.950001   38.267999       1.0000      1.0079
   61   1 O    8     -48.150002  -14.210001   30.427997       6.0000     15.9994
   62   2 H    1     -32.220001  -14.250001   30.307998       1.0000      1.0079
   63   2 H    1     -31.210001  -14.390000   31.388000       1.0000      1.0079
   64   1 O    8      -9.820001   22.299999   33.907998       6.0000     15.9994
   65   2 H    1      -9.270000   23.090000   33.948001       1.0000      1.0079
   66   2 H    1      -9.320001   21.520002   33.597999       1.0000      1.0079
   67   1 O    8       5.350000   -7.750000   30.048000       6.0000     15.9994
   68   2 H    1       5.550000   -7.680000   29.088001       1.0000      1.0079
   69   2 H    1       4.570000   -8.380001   30.208000       1.0000      1.0079
   70   1 O    8     -29.660000  -14.250001   37.417999       6.0000     15.9994
   71   2 H    1     -29.790001  -14.130001   38.407998       1.0000      1.0079
   72   2 H    1     -28.670002  -14.380001   37.437999       1.0000      1.0079
   73   1 O    8      14.710001    2.530000   30.217998       6.0000     15.9994
   74   2 H    1      14.500000    2.860000   31.147998       1.0000      1.0079
   75   2 H    1      15.340000    3.160000   29.847999       1.0000      1.0079
   76   1 O    8      29.500000    8.040000   34.458000       6.0000     15.9994
   77   2 H    1      29.010000    8.060000   33.568000       1.0000      1.0079
   78   2 H    1      30.480001    7.870001   34.148000       1.0000      1.0079
   79   1 O    8      39.190002    3.000000   29.947997       6.0000     15.9994
   80   2 H    1      39.720001    3.830000   30.167999       1.0000      1.0079
   81   2 H    1      39.520000    2.490000   29.097999       1.0000      1.0079
   82   1 O    8     -21.700001   40.360001   32.117999       6.0000     15.9994
   83   2 H    1     -21.000002   40.900002   32.577998       1.0000      1.0079
   84   2 H    1     -21.250000   40.030003   31.298000       1.0000      1.0079
   85   1 O    8      15.520000    0.170000   31.017997       6.0000     15.9994
   86   2 H    1      14.790001   -0.380000   30.617999       1.0000      1.0079
   87   2 H    1      15.390000    1.020000   30.557998       1.0000      1.0079
   88   1 O    8       3.220000   34.299999   37.587999       6.0000     15.9994
   89   2 H    1       2.300000   34.160000   37.208000       1.0000      1.0079
   90   2 H    1       2.970000   34.050003   38.527999       1.0000      1.0079
   91   1 O    8      12.060001    2.710000   29.557998       6.0000     15.9994
   92   2 H    1      11.510000    1.950000   29.708000       1.0000      1.0079
   93   2 H    1      13.050001    2.530000   29.757999       1.0000      1.0079
   94   1 O    8      13.410001   -3.070000   35.837999       6.0000     15.9994
   95   2 H    1      12.460001   -2.850000   36.017997       1.0000      1.0079
   96   2 H    1      13.550000   -3.720000   35.117999       1.0000      1.0079
   97   1 O    8      -5.470000   -6.230001   30.398002       6.0000     15.9994
   98   2 H    1      -4.890000   -6.750000   29.798000       1.0000      1.0079
   99   2 H    1      -5.460000   -6.890000   31.128000       1.0000      1.0079
  100   1 O    8      44.100002  -15.400001   36.267999       6.0000     15.9994
  101   2 H    1      43.370003  -16.000000   35.817998       1.0000      1.0079
  102   2 H    1      44.580002  -14.930000   35.557998       1.0000      1.0079
  103   1 O    8       7.210000  -11.750001   38.027999       6.0000     15.9994
  104   2 H    1      -1.530000    1.940000   37.878000       1.0000      1.0079
  105   2 H    1       7.460001  -11.640000   38.988000       1.0000      1.0079
  106   1 O    8      24.890001   -9.420000   32.978000       6.0000     15.9994
  107   2 H    1      24.160002  -10.180000   33.048000       1.0000      1.0079
  108   2 H    1      25.730001   -9.930000   32.968000       1.0000      1.0079
  109   1 O    8       4.990000    6.230001   29.737998       6.0000     15.9994
  110   2 H    1       4.220000    5.790000   30.187999       1.0000      1.0079
  111   2 H    1       5.040000    5.960000   28.757999       1.0000      1.0079
  112   1 O    8       8.590000    6.930000   35.027999       6.0000     15.9994
  113   2 H    1       8.210000    6.790000   34.107997       1.0000      1.0079
  114   2 H    1       8.220000    6.200000   35.507999       1.0000      1.0079
  115   1 O    8     -13.910000   12.600001   29.187999       6.0000     15.9994
  116   2 H    1     -14.040001   13.560000   29.527999       1.0000      1.0079
  117   2 H    1     -12.930001   12.460001   29.478000       1.0000      1.0079
  118   1 O    8       3.680000  -10.300001   33.458000       6.0000     15.9994
  119   2 H    1       3.520000  -10.000000   32.537999       1.0000      1.0079
  120   2 H    1       3.440000   -9.590000   34.178001       1.0000      1.0079
  121   1 O    8     -23.720001    2.280000   33.827998       6.0000     15.9994
  122   2 H    1     -23.110001    1.480000   33.867999       1.0000      1.0079
  123   2 H    1     -23.220001    3.060000   34.128000       1.0000      1.0079
  124   1 O    8       8.050001   -7.120000   38.787999       6.0000     15.9994
  125   2 H    1       7.580000   -6.250000   38.848001       1.0000      1.0079
  126   2 H    1       7.740001   -7.470000   37.908000       1.0000      1.0079
  127   1 O    8     -24.070000   45.050003   38.097999       6.0000     15.9994
  128   2 H    1     -24.950001   45.520000   38.017999       1.0000      1.0079
  129   2 H    1     -24.080002   44.230003   37.478000       1.0000      1.0079
  130   1 O    8     -18.460001   -8.440001   39.697997       6.0000     15.9994
  131   2 H    1     -18.660000   -8.940001   40.537999       1.0000      1.0079
  132   2 H    1     -17.940001   -7.570000   39.917999       1.0000      1.0079
  133   1 O    8      14.200001   24.060001   33.997999       6.0000     15.9994
  134   2 H    1      22.190001    8.610001   34.207998       1.0000      1.0079
  135   2 H    1      -1.690000   23.900002   33.897998       1.0000      1.0079
  136   1 O    8       0.180000   12.400000   29.967998       6.0000     15.9994
  137   2 H    1       1.120000   12.220000   29.627998       1.0000      1.0079
  138   2 H    1       0.020000   13.330001   29.697997       1.0000      1.0079
  139   1 O    8       1.110000   17.889999   31.407998       6.0000     15.9994
  140   2 H    1       1.210000   17.520000   32.327998       1.0000      1.0079
  141   2 H    1       1.880000   17.560001   30.968000       1.0000      1.0079
  142   1 O    8     -28.040001    3.250000   33.428001       6.0000     15.9994
  143   2 H    1     -28.180000    2.590000   34.167999       1.0000      1.0079
  144   2 H    1     -27.680000    2.720000   32.727998       1.0000      1.0079
  145   1 O    8     -16.780001   -2.470000   34.847999       6.0000     15.9994
  146   2 H    1     -16.930000   -3.400000   35.187999       1.0000      1.0079
  147   2 H    1     -16.370001   -2.460000   33.927999       1.0000      1.0079
  148   1 O    8      -8.770000    0.280000   29.777999       6.0000     15.9994
  149   2 H    1      -8.910000    0.730000   28.967998       1.0000      1.0079
  150   2 H    1      -9.450001    0.540000   30.437999       1.0000      1.0079
  151   1 O    8       3.400000   -9.280001   30.747999       6.0000     15.9994
  152   2 H    1       2.720000   -8.680000   30.357997       1.0000      1.0079
  153   2 H    1       3.340000  -10.040001   30.187999       1.0000      1.0079
  154   1 O    8       0.140000   19.160002   38.547998       6.0000     15.9994
  155   2 H    1      -0.590000   19.800001   38.818000       1.0000      1.0079
  156   2 H    1       0.380000   18.770000   39.438001       1.0000      1.0079
  157   1 O    8      16.040001   48.600002   30.257999       6.0000     15.9994
  158   2 H    1      16.920000   48.250004   30.537999       1.0000      1.0079
  159   2 H    1      16.150002   48.890003   29.337997       1.0000      1.0079
  160   1 O    8     -36.910004   -7.690001   36.847999       6.0000     15.9994
  161   2 H    1     -37.750000   -7.900000   37.327998       1.0000      1.0079
  162   2 H    1     -36.480003   -8.540000   36.958000       1.0000      1.0079
  163   1 O    8     -20.160000    4.760000   37.108001       6.0000     15.9994
  164   2 H    1     -19.650002    4.010000   37.498000       1.0000      1.0079
  165   2 H    1     -12.330000   -9.530001   37.798000       1.0000      1.0079
  166   1 O    8     -15.330001   -7.320001   30.017997       6.0000     15.9994
  167   2 H    1     -15.200001   -7.130001   29.027999       1.0000      1.0079
  168   2 H    1     -16.260000   -7.280001   30.138000       1.0000      1.0079
  169   1 O    8     -12.120000   27.530001   33.837999       6.0000     15.9994
  170   2 H    1     -12.380000   27.040003   34.617999       1.0000      1.0079
  171   2 H    1     -11.250000   27.850000   33.997999       1.0000      1.0079
  172   1 O    8      21.080000   25.459999   35.647998       6.0000     15.9994
  173   2 H    1      20.889999   24.600000   35.198001       1.0000      1.0079
  174   2 H    1      28.780001   10.970000   36.367999       1.0000      1.0079
  175   1 O    8      -4.070000    9.760000   29.908000       6.0000     15.9994
  176   2 H    1      -3.130000   10.030001   29.767997       1.0000      1.0079
  177   2 H    1      -3.900000    8.800000   30.208000       1.0000      1.0079
  178   1 O    8      27.290001   12.960000   39.067998       6.0000     15.9994
  179   2 H    1      28.030003   13.180000   39.648000       1.0000      1.0079
  180   2 H    1      27.530001   12.070000   38.607999       1.0000      1.0079
  181   1 O    8      -3.000000    1.150000   34.058000       6.0000     15.9994
  182   2 H    1      -2.340000    0.670000   34.617999       1.0000      1.0079
  183   2 H    1      -3.560000    1.710000   34.748000       1.0000      1.0079
  184   1 O    8      17.760002   -2.790000   32.378000       6.0000     15.9994
  185   2 H    1      17.590000   -2.150000   31.617999       1.0000      1.0079
  186   2 H    1      18.690001   -3.020000   32.218000       1.0000      1.0079
  187   1 O    8      20.950001    7.110000   39.857999       6.0000     15.9994
  188   2 H    1      20.900002    7.630000   40.667999       1.0000      1.0079
  189   2 H    1       5.050000    6.920000   39.768001       1.0000      1.0079
  190   1 O    8     -25.890003   29.870003   38.658000       6.0000     15.9994
  191   2 H    1     -26.650002   30.210001   39.048000       1.0000      1.0079
  192   2 H    1     -25.720001   30.470001   37.828000       1.0000      1.0079
  193   1 O    8       8.100000    9.590000   32.827998       6.0000     15.9994
  194   2 H    1       8.320000   10.530001   32.677999       1.0000      1.0079
  195   2 H    1       8.960000    9.160001   32.747999       1.0000      1.0079
  196   1 O    8       6.870000   -4.050000   36.527999       6.0000     15.9994
  197   2 H    1      -2.400000   10.790000   36.068000       1.0000      1.0079
  198   2 H    1       7.240000   -3.140000   36.757999       1.0000      1.0079
  199   1 O    8      22.910002    0.840000   31.607997       6.0000     15.9994
  200   2 H    1      22.590000    1.510000   30.987998       1.0000      1.0079
  201   2 H    1      22.640001   -0.100000   31.347999       1.0000      1.0079
  202   1 O    8      21.670000   34.770004   32.597999       6.0000     15.9994
  203   2 H    1      21.910002   33.850002   32.937999       1.0000      1.0079
  204   2 H    1      21.290001   35.320000   33.358001       1.0000      1.0079
  205   1 O    8     -36.900002   27.010002   30.388000       6.0000     15.9994
  206   2 H    1     -37.200005   26.420002   31.128000       1.0000      1.0079
  207   2 H    1     -36.320004   26.520002   29.847999       1.0000      1.0079
  208   1 O    8       0.210000    8.070001   29.307998       6.0000     15.9994
  209   2 H    1       1.230000    7.970000   29.518001       1.0000      1.0079
  210   2 H    1      -0.200000    7.230001   29.748000       1.0000      1.0079
  211   1 O    8     -27.110003   14.920001   37.857997       6.0000     15.9994
  212   2 H    1     -27.020000   14.380001   36.987998       1.0000      1.0079
  213   2 H    1     -26.900002   14.290000   38.577998       1.0000      1.0079
  214   1 O    8      20.770000  -12.200001   35.867999       6.0000     15.9994
  215   2 H    1      20.690001  -12.840000   36.667999       1.0000      1.0079
  216   2 H    1      20.820000  -11.280001   36.177999       1.0000      1.0079
  217   1 O    8      16.240002  -23.460003   30.297996       6.0000     15.9994
  218   2 H    1      15.250001  -23.310001   30.297996       1.0000      1.0079
  219   2 H    1      16.480001  -23.370001   31.217998       1.0000      1.0079
  220   1 O    8     -15.980000   33.650002   36.397998       6.0000     15.9994
  221   2 H    1     -16.430000   34.400002   35.998000       1.0000      1.0079
  222   2 H    1     -16.700001   32.990002   36.507999       1.0000      1.0079
  223   1 O    8      10.970000   20.180000   31.247999       6.0000     15.9994
  224   2 H    1      11.650001   20.040001   31.997999       1.0000      1.0079
  225   2 H    1      10.500001   19.320000   31.307998       1.0000      1.0079
  226   1 O    8      17.600000   -1.190000   30.017997       6.0000     15.9994
  227   2 H    1      16.890001   -0.680000   30.357997       1.0000      1.0079
  228   2 H    1      17.450001   -1.630000   29.138000       1.0000      1.0079
  229   1 O    8      41.110001   20.910000   36.497999       6.0000     15.9994
  230   2 H    1      40.930004   21.630001   35.767999       1.0000      1.0079
  231   2 H    1      40.160004   20.570002   36.667999       1.0000      1.0079
  232   1 O    8       6.070001  -19.510000   37.638000       6.0000     15.9994
  233   2 H    1       5.430000  -18.960001   37.117999       1.0000      1.0079
  234   2 H    1       5.760000  -20.430000   37.638000       1.0000      1.0079
  235   1 O    8       4.590000   10.450001   31.907998       6.0000     15.9994
  236   2 H    1       4.960000    9.990001   32.708000       1.0000      1.0079
  237   2 H    1       4.010000    9.840000   31.447997       1.0000      1.0079
  238   1 O    8     -14.230001   11.050000   39.058000       6.0000     15.9994
  239   2 H    1     -14.930000   11.430000   39.578000       1.0000      1.0079
  240   2 H    1     -14.430000   10.020000   38.997999       1.0000      1.0079
  241   1 O    8      -3.640000   13.660001   36.947999       6.0000     15.9994
  242   2 H    1     -11.830001   28.660002   37.828000       1.0000      1.0079
  243   2 H    1      -4.580000   13.750001   36.908000       1.0000      1.0079
  244   1 O    8     -30.820004   20.459999   35.317998       6.0000     15.9994
  245   2 H    1     -31.790001   20.640001   34.978000       1.0000      1.0079
  246   2 H    1     -30.250000   21.330002   35.087999       1.0000      1.0079
  247   1 O    8     -22.380001   -2.130000   33.767999       6.0000     15.9994
  248   2 H    1     -23.340000   -2.260000   33.647998       1.0000      1.0079
  249   2 H    1     -22.060001   -2.840000   33.208000       1.0000      1.0079
  250   1 O    8     -16.680000    9.830000   34.277999       6.0000     15.9994
  251   2 H    1     -17.080000   10.050000   35.107999       1.0000      1.0079
  252   2 H    1     -16.510000   10.660001   33.787999       1.0000      1.0079
  253   1 O    8       1.640000    8.060000   35.468000       6.0000     15.9994
  254   2 H    1       1.800000    8.220000   36.448001       1.0000      1.0079
  255   2 H    1       1.380000    8.960000   35.077998       1.0000      1.0079
  256   1 O    8      19.510000   12.650002   36.777999       6.0000     15.9994
  257   2 H    1      28.510000   -1.180000   36.908000       1.0000      1.0079
  258   2 H    1      19.580000   12.160001   37.668001       1.0000      1.0079
  259   1 O    8      11.410000   14.760000   30.447997       6.0000     15.9994
  260   2 H    1      11.300000   14.830000   31.447997       1.0000      1.0079
  261   2 H    1      10.700001   14.190001   30.227996       1.0000      1.0079
  262   1 O    8       2.190000    8.590000   38.307998       6.0000     15.9994
  263   2 H    1       2.850000    8.030001   38.777999       1.0000      1.0079
  264   2 H    1       1.300000    8.190001   38.568000       1.0000      1.0079
  265   1 O    8      -9.680000   -0.730000   34.237998       6.0000     15.9994
  266   2 H    1      -9.350000   -0.710000   35.177999       1.0000      1.0079
  267   2 H    1      -9.420000    0.170000   33.897998       1.0000      1.0079
  268   1 O    8      10.660001   37.930000   32.417999       6.0000     15.9994
  269   2 H    1      11.260000   38.690002   32.347999       1.0000      1.0079
  270   2 H    1      10.480001   37.660004   31.488000       1.0000      1.0079
  271   1 O    8       8.250000   27.800003   36.567998       6.0000     15.9994
  272   2 H    1       9.230001   27.780001   36.497999       1.0000      1.0079
  273   2 H    1       8.130000   28.200001   37.458000       1.0000      1.0079
  274   1 O    8      -8.220000   17.960001   29.237998       6.0000     15.9994
  275   2 H    1      -8.420001   18.940001   29.428001       1.0000      1.0079
  276   2 H    1      -7.230001   18.020000   29.307998       1.0000      1.0079
  277   1 O    8       5.380001   -1.500000   30.357997       6.0000     15.9994
  278   2 H    1     -12.390001   -1.030000   30.347999       1.0000      1.0079
  279   2 H    1       5.630000   -1.360000   29.448001       1.0000      1.0079
  280   1 O    8      -2.320000   32.580002   32.987998       6.0000     15.9994
  281   2 H    1      -2.380000   31.680002   33.437999       1.0000      1.0079
  282   2 H    1      -3.240000   32.960003   33.217998       1.0000      1.0079
  283   1 O    8      19.780001  -28.880003   33.477998       6.0000     15.9994
  284   2 H    1      20.360001  -28.020000   33.417999       1.0000      1.0079
  285   2 H    1      20.459999  -29.540003   33.747999       1.0000      1.0079
  286   1 O    8     -18.890001   19.120001   36.397998       6.0000     15.9994
  287   2 H    1     -18.370001   18.380001   36.748000       1.0000      1.0079
  288   2 H    1     -18.870001   18.890001   35.417999       1.0000      1.0079
  289   1 O    8      -1.330000   10.330000   29.257999       6.0000     15.9994
  290   2 H    1      -0.790000   11.030001   29.757999       1.0000      1.0079
  291   2 H    1      -0.830000    9.490001   29.548000       1.0000      1.0079
  292   3 Pt  78       1.390000    0.650000   26.837997      10.0000    195.0840
  293   3 Pt  78       4.200000    0.920000   26.847999      10.0000    195.0840
  294   3 Pt  78       7.110000    0.770000   26.718002      10.0000    195.0840
  295   3 Pt  78       9.870001    0.710000   26.837997      10.0000    195.0840
  296   3 Pt  78      12.690001    0.750000   26.788001      10.0000    195.0840
  297   3 Pt  78      15.400001    0.660000   27.007999      10.0000    195.0840
  298   3 Pt  78       2.820000    3.230000   26.777999      10.0000    195.0840
  299   3 Pt  78       5.770000    3.210000   26.888000      10.0000    195.0840
  300   3 Pt  78       8.490001    3.170000   26.818000      10.0000    195.0840
  301   3 Pt  78      11.230000    3.180000   26.837997      10.0000    195.0840
  302   3 Pt  78      14.140000    3.050000   26.718002      10.0000    195.0840
  303   3 Pt  78      -0.060000    3.090000   26.788001      10.0000    195.0840
  304   3 Pt  78       4.300000    5.560000   26.718002      10.0000    195.0840
  305   3 Pt  78       7.060000    5.570001   26.967998      10.0000    195.0840
  306   3 Pt  78       9.930000    5.530000   26.827998      10.0000    195.0840
  307   3 Pt  78      12.750001    5.610001   26.767997      10.0000    195.0840
  308   3 Pt  78      -1.420000    5.650000   26.888000      10.0000    195.0840
  309   3 Pt  78       1.470000    5.610001   26.837997      10.0000    195.0840
  310   3 Pt  78       5.730000    7.920001   26.757999      10.0000    195.0840
  311   3 Pt  78       8.560000    7.940001   26.948001      10.0000    195.0840
  312   3 Pt  78      11.400002    7.900000   26.897998      10.0000    195.0840
  313   3 Pt  78      -2.720000    8.160001   26.798000      10.0000    195.0840
  314   3 Pt  78       0.050000    8.220000   26.818000      10.0000    195.0840
  315   3 Pt  78       2.980000    8.010000   26.708000      10.0000    195.0840
  316   3 Pt  78       7.310000   10.420000   27.097999      10.0000    195.0840
  317   3 Pt  78      10.050000   10.330000   26.958000      10.0000    195.0840
  318   3 Pt  78      -4.050000   10.550001   26.788001      10.0000    195.0840
  319   3 Pt  78      -1.340000   10.590000   26.937999      10.0000    195.0840
  320   3 Pt  78       1.480000   10.559999   26.687999      10.0000    195.0840
  321   3 Pt  78       4.240000   10.450001   26.777999      10.0000    195.0840
  322   3 Pt  78       8.460000   12.930001   27.007999      10.0000    195.0840
  323   3 Pt  78      -5.430000   13.010001   26.917999      10.0000    195.0840
  324   3 Pt  78      -2.700000   13.050001   26.907996      10.0000    195.0840
  325   3 Pt  78       0.120000   12.910000   26.818000      10.0000    195.0840
  326   3 Pt  78       2.850000   12.910000   27.048000      10.0000    195.0840
  327   3 Pt  78       5.750000   12.750001   26.977996      10.0000    195.0840
  328   3 Pt  78       0.090000    1.560000   24.448001      10.0000    195.0840
  329   3 Pt  78       2.940000    1.500000   24.607997      10.0000    195.0840
  330   3 Pt  78       5.760000    1.580000   24.448001      10.0000    195.0840
  331   3 Pt  78       8.540000    1.480000   24.407996      10.0000    195.0840
  332   3 Pt  78      11.400002    1.490000   24.448001      10.0000    195.0840
  333   3 Pt  78      14.070001    1.480000   24.377998      10.0000    195.0840
  334   3 Pt  78       1.620000    4.010000   24.477996      10.0000    195.0840
  335   3 Pt  78       4.520000    3.960000   24.527999      10.0000    195.0840
  336   3 Pt  78       7.280001    3.950000   24.428001      10.0000    195.0840
  337   3 Pt  78       9.940001    3.980000   24.337997      10.0000    195.0840
  338   3 Pt  78      12.750001    3.920000   24.537998      10.0000    195.0840
  339   3 Pt  78      -1.240000    4.010000   24.527999      10.0000    195.0840
  340   3 Pt  78       3.070000    6.460000   24.467998      10.0000    195.0840
  341   3 Pt  78       5.820000    6.420000   24.428001      10.0000    195.0840
  342   3 Pt  78       8.530001    6.430000   24.527999      10.0000    195.0840
  343   3 Pt  78      11.310000    6.410000   24.467998      10.0000    195.0840
  344   3 Pt  78      -2.670000    6.430000   24.487998      10.0000    195.0840
  345   3 Pt  78       0.270000    6.410000   24.588001      10.0000    195.0840
  346   3 Pt  78       4.530000    8.930000   24.397998      10.0000    195.0840
  347   3 Pt  78       7.280001    8.880001   24.557998      10.0000    195.0840
  348   3 Pt  78       9.950001    8.850000   24.638000      10.0000    195.0840
  349   3 Pt  78      -4.120000    8.810000   24.527999      10.0000    195.0840
  350   3 Pt  78      -1.170000    8.840000   24.518001      10.0000    195.0840
  351   3 Pt  78       1.600000    8.820001   24.437999      10.0000    195.0840
  352   3 Pt  78       5.870000   11.270000   24.537998      10.0000    195.0840
  353   3 Pt  78       8.570001   11.270000   24.548000      10.0000    195.0840
  354   3 Pt  78      -5.460000   11.240001   24.577998      10.0000    195.0840
  355   3 Pt  78      -2.530000   11.160001   24.467998      10.0000    195.0840
  356   3 Pt  78       0.220000   11.210001   24.487998      10.0000    195.0840
  357   3 Pt  78       2.960000   11.260000   24.477996      10.0000    195.0840
  358   3 Pt  78       7.140000   13.710001   24.518001      10.0000    195.0840
  359   3 Pt  78      -7.020000   13.770000   24.568000      10.0000    195.0840
  360   3 Pt  78      -4.070000   13.700001   24.577998      10.0000    195.0840
  361   3 Pt  78      -1.320000   13.590001   24.417999      10.0000    195.0840
  362   3 Pt  78       1.540000   13.690001   24.417999      10.0000    195.0840
  363   3 Pt  78       4.320000   13.670001   24.537998      10.0000    195.0840
  364   3 Pt  78      -8.280001   14.510001   22.197997      10.0000    195.0840
  365   3 Pt  78      -5.410000   14.550000   22.307998      10.0000    195.0840
  366   3 Pt  78      -2.590000   14.440001   22.138000      10.0000    195.0840
  367   3 Pt  78       0.190000   14.440001   22.167999      10.0000    195.0840
  368   3 Pt  78       3.010000   14.490002   22.087997      10.0000    195.0840
  369   3 Pt  78       5.790000   14.520000   22.077998      10.0000    195.0840
  370   3 Pt  78       1.560000    2.410000   22.208000      10.0000    195.0840
  371   3 Pt  78       4.440001    2.400000   22.167999      10.0000    195.0840
  372   3 Pt  78       7.210000    2.350000   22.108001      10.0000    195.0840
  373   3 Pt  78      10.000000    2.210000   22.167999      10.0000    195.0840
  374   3 Pt  78      12.900001    2.330000   22.027995      10.0000    195.0840
  375   3 Pt  78      -1.220000    2.360000   22.117999      10.0000    195.0840
  376   3 Pt  78       3.130000    4.850000   22.197997      10.0000    195.0840
  377   3 Pt  78       5.850000    4.790000   22.147998      10.0000    195.0840
  378   3 Pt  78       8.720000    4.810000   22.077998      10.0000    195.0840
  379   3 Pt  78      11.360001    4.810000   22.127998      10.0000    195.0840
  380   3 Pt  78      -2.620000    4.740000   22.147998      10.0000    195.0840
  381   3 Pt  78       0.210000    4.730000   22.167999      10.0000    195.0840
  382   3 Pt  78       4.360000    7.280001   22.167999      10.0000    195.0840
  383   3 Pt  78       7.190001    7.160000   22.147998      10.0000    195.0840
  384   3 Pt  78      10.050000    7.330000   22.227996      10.0000    195.0840
  385   3 Pt  78      -4.090000    7.240000   22.178001      10.0000    195.0840
  386   3 Pt  78      -1.160000    7.200000   22.157996      10.0000    195.0840
  387   3 Pt  78       1.620000    7.200000   22.138000      10.0000    195.0840
  388   3 Pt  78       5.860000    9.720000   22.147998      10.0000    195.0840
  389   3 Pt  78       8.620001    9.660000   22.248000      10.0000    195.0840
  390   3 Pt  78      -5.380001    9.730001   22.287998      10.0000    195.0840
  391   3 Pt  78      -2.550000    9.590000   22.178001      10.0000    195.0840
  392   3 Pt  78       0.310000    9.600000   22.167999      10.0000    195.0840
  393   3 Pt  78       3.040000    9.680000   22.108001      10.0000    195.0840
  394   3 Pt  78       7.210000   12.100000   22.147998      10.0000    195.0840
  395   3 Pt  78      -6.920000   12.130001   22.287998      10.0000    195.0840
  396   3 Pt  78      -3.930000   12.070000   22.187999      10.0000    195.0840
  397   3 Pt  78      -1.160000   11.970000   22.167999      10.0000    195.0840
  398   3 Pt  78       1.570000   12.090001   22.068000      10.0000    195.0840
  399   3 Pt  78       4.330000   12.160001   22.138000      10.0000    195.0840
  400   3 Pt  78       1.590000    0.710000   19.990000      10.0000    195.0840
  401   3 Pt  78       4.430000    0.680000   19.980000      10.0000    195.0840
  402   3 Pt  78       7.180000    0.730000   19.850000      10.0000    195.0840
  403   3 Pt  78       9.960001    0.630000   19.710000      10.0000    195.0840
  404   3 Pt  78      12.800001    0.630000   19.770000      10.0000    195.0840
  405   3 Pt  78      15.520000    0.730000   19.740000      10.0000    195.0840
  406   3 Pt  78       3.010000    3.080000   19.880000      10.0000    195.0840
  407   3 Pt  78       5.770000    3.150000   19.780000      10.0000    195.0840
  408   3 Pt  78       8.580000    3.210000   19.800000      10.0000    195.0840
  409   3 Pt  78      11.340000    3.060000   19.780000      10.0000    195.0840
  410   3 Pt  78      14.200001    3.070000   19.730000      10.0000    195.0840
  411   3 Pt  78       0.170000    3.080000   19.780000      10.0000    195.0840
  412   3 Pt  78       4.350000    5.550000   19.860000      10.0000    195.0840
  413   3 Pt  78       7.080000    5.670000   19.820000      10.0000    195.0840
  414   3 Pt  78       9.920000    5.620000   19.800000      10.0000    195.0840
  415   3 Pt  78      12.690001    5.520000   19.890000      10.0000    195.0840
  416   3 Pt  78      -1.210000    5.510000   19.880000      10.0000    195.0840
  417   3 Pt  78       1.620000    5.480001   19.930000      10.0000    195.0840
  418   3 Pt  78       5.800000    8.140000   19.860000      10.0000    195.0840
  419   3 Pt  78       8.600000    8.090000   19.840000      10.0000    195.0840
  420   3 Pt  78      11.420001    8.030001   19.800000      10.0000    195.0840
  421   3 Pt  78      -2.670000    7.920001   19.850000      10.0000    195.0840
  422   3 Pt  78       0.180000    7.950000   19.890000      10.0000    195.0840
  423   3 Pt  78       2.980000    8.020000   19.840000      10.0000    195.0840
  424   3 Pt  78       7.200000   10.510000   19.890000      10.0000    195.0840
  425   3 Pt  78       9.970000   10.450001   19.960000      10.0000    195.0840
  426   3 Pt  78      -4.050000   10.440001   19.930000      10.0000    195.0840
  427   3 Pt  78      -1.260000   10.350000   19.820000      10.0000    195.0840
  428   3 Pt  78       1.460000   10.500001   19.760000      10.0000    195.0840
  429   3 Pt  78       4.360000   10.480001   19.830000      10.0000    195.0840
  430   3 Pt  78       8.530001   12.940001   19.830000      10.0000    195.0840
  431   3 Pt  78      -5.520000   12.830001   20.100000      10.0000    195.0840
  432   3 Pt  78      -2.620000   12.810000   19.840000      10.0000    195.0840
  433   3 Pt  78       0.030000   12.840000   19.790000      10.0000    195.0840
  434   3 Pt  78       2.890000   12.890000   19.720000      10.0000    195.0840
  435   3 Pt  78       5.660000   12.900001   19.800000      10.0000    195.0840
  436   3 Pt  78       0.250000    1.340000   17.440000      10.0000    195.0840
  437   3 Pt  78       2.920000    1.400000   17.590000      10.0000    195.0840
  438   3 Pt  78       5.740000    1.320000   17.690001      10.0000    195.0840
  439   3 Pt  78       8.700001    1.520000   17.500000      10.0000    195.0840
  440   3 Pt  78      11.410000    1.450000   17.470000      10.0000    195.0840
  441   3 Pt  78      14.120001    1.520000   17.450000      10.0000    195.0840
  442   3 Pt  78       1.680000    3.820000   17.530000      10.0000    195.0840
  443   3 Pt  78       4.330000    3.860000   17.510000      10.0000    195.0840
  444   3 Pt  78       7.110000    3.930000   17.430000      10.0000    195.0840
  445   3 Pt  78      10.050000    3.970000   17.520000      10.0000    195.0840
  446   3 Pt  78      12.860001    3.840000   17.540000      10.0000    195.0840
  447   3 Pt  78      -1.150000    3.810000   17.530000      10.0000    195.0840
  448   3 Pt  78       2.930000    6.270000   17.580000      10.0000    195.0840
  449   3 Pt  78       5.720000    6.340000   17.490000      10.0000    195.0840
  450   3 Pt  78       8.480000    6.380000   17.480000      10.0000    195.0840
  451   3 Pt  78      11.440001    6.390000   17.540000      10.0000    195.0840
  452   3 Pt  78      -2.590000    6.210001   17.580000      10.0000    195.0840
  453   3 Pt  78       0.220000    6.340000   17.570000      10.0000    195.0840
  454   3 Pt  78       4.370000    8.730000   17.470000      10.0000    195.0840
  455   3 Pt  78       7.070000    8.740000   17.570000      10.0000    195.0840
  456   3 Pt  78       9.970000    8.810000   17.550000      10.0000    195.0840
  457   3 Pt  78      -4.080000    8.810000   17.490000      10.0000    195.0840
  458   3 Pt  78      -1.270000    8.670000   17.530000      10.0000    195.0840
  459   3 Pt  78       1.660000    8.630000   17.500000      10.0000    195.0840
  460   3 Pt  78       5.660000   11.160001   17.440000      10.0000    195.0840
  461   3 Pt  78       8.460000   11.090001   17.470000      10.0000    195.0840
  462   3 Pt  78      -5.500000   11.180000   17.730000      10.0000    195.0840
  463   3 Pt  78      -2.660000   11.210001   17.570000      10.0000    195.0840
  464   3 Pt  78       0.180000   11.090001   17.440000      10.0000    195.0840
  465   3 Pt  78       2.880000   11.090001   17.450000      10.0000    195.0840
  466   3 Pt  78       7.190001   13.650000   17.520000      10.0000    195.0840
  467   3 Pt  78      -6.960001   13.490001   17.560000      10.0000    195.0840
  468   3 Pt  78      -4.200000   13.670001   17.700000      10.0000    195.0840
  469   3 Pt  78      -1.280000   13.650000   17.570000      10.0000    195.0840
  470   3 Pt  78       1.490000   13.440001   17.420000      10.0000    195.0840
  471   3 Pt  78       4.410000   13.560000   17.440000      10.0000    195.0840
  472   3 Pt  78      -8.350000   14.420000   15.000000      10.0000    195.0840
  473   3 Pt  78      -5.620000   14.310001   15.230000      10.0000    195.0840
  474   3 Pt  78      -2.670000   14.290000   15.270000      10.0000    195.0840
  475   3 Pt  78       0.160000   14.340000   15.070000      10.0000    195.0840
  476   3 Pt  78       2.870000   14.440001   15.120000      10.0000    195.0840
  477   3 Pt  78       5.680000   14.310001   15.140000      10.0000    195.0840
  478   3 Pt  78       1.650000    2.220000   15.060000      10.0000    195.0840
  479   3 Pt  78       4.310000    2.100000   15.380000      10.0000    195.0840
  480   3 Pt  78       7.120000    2.150000   15.260000      10.0000    195.0840
  481   3 Pt  78       9.870001    2.160000   15.140000      10.0000    195.0840
  482   3 Pt  78      12.820001    2.220000   15.060000      10.0000    195.0840
  483   3 Pt  78      -1.280000    2.210000   15.150001      10.0000    195.0840
  484   3 Pt  78       2.950000    4.640000   15.110000      10.0000    195.0840
  485   3 Pt  78       5.820000    4.610000   15.080000      10.0000    195.0840
  486   3 Pt  78       8.600000    4.640000   15.230000      10.0000    195.0840
  487   3 Pt  78      11.600000    4.680000   15.180000      10.0000    195.0840
  488   3 Pt  78      -2.550000    4.680000   15.040000      10.0000    195.0840
  489   3 Pt  78       0.120000    4.620000   15.270000      10.0000    195.0840
  490   3 Pt  78       4.430000    6.970000   15.180000      10.0000    195.0840
  491   3 Pt  78       7.170000    7.100000   15.190001      10.0000    195.0840
  492   3 Pt  78      10.090000    7.030000   15.340000      10.0000    195.0840
  493   3 Pt  78      -3.950000    7.060000   15.290000      10.0000    195.0840
  494   3 Pt  78      -1.210000    7.040000   15.190001      10.0000    195.0840
  495   3 Pt  78       1.660000    7.040000   15.120000      10.0000    195.0840
  496   3 Pt  78       5.730000    9.500000   15.220000      10.0000    195.0840
  497   3 Pt  78       8.630000    9.520000   15.160000      10.0000    195.0840
  498   3 Pt  78      -5.550000    9.620001   15.150001      10.0000    195.0840
  499   3 Pt  78      -2.770000    9.450001   15.150001      10.0000    195.0840
  500   3 Pt  78       0.130000    9.540001   15.220000      10.0000    195.0840
  501   3 Pt  78       2.850000    9.410001   15.190001      10.0000    195.0840
  502   3 Pt  78       7.190001   11.940001   15.110000      10.0000    195.0840
  503   3 Pt  78      -6.850000   11.990000   15.250000      10.0000    195.0840
  504   3 Pt  78      -4.160000   11.960001   15.380000      10.0000    195.0840
  505   3 Pt  78      -1.300000   11.990000   15.260000      10.0000    195.0840
[...]
 -                                                                             -
 -                                DBCSR STATISTICS                             -
 -                                                                             -
 -------------------------------------------------------------------------------
 COUNTER                                    TOTAL       BLAS       SMM       ACC
 flops     5 x     5 x   112           5188904000       0.0%    100.0%      0.0%
 flops    13 x     5 x   112           6615729120       0.0%    100.0%      0.0%
 flops     5 x    13 x   112           6629997920       0.0%    100.0%      0.0%
 flops    13 x    13 x   112           7974404256       0.0%    100.0%      0.0%
 flops     5 x     5 x    96           8895264000       0.0%    100.0%      0.0%
 flops    13 x     5 x    96          11341249920       0.0%    100.0%      0.0%
 flops     5 x    13 x    96          11365710720       0.0%    100.0%      0.0%
 flops    20 x    13 x   112          11609095680       0.0%    100.0%      0.0%
 flops    13 x    20 x   112          11626218240       0.0%    100.0%      0.0%
 flops     5 x    20 x   112          12331536000       0.0%    100.0%      0.0%
 flops    20 x     5 x   112          12363366400       0.0%    100.0%      0.0%
 flops    13 x    13 x    96          13670407296       0.0%    100.0%      0.0%
 flops    20 x    13 x    96          19901306880       0.0%    100.0%      0.0%
 flops    13 x    20 x    96          19930659840       0.0%    100.0%      0.0%
 flops     5 x    20 x    96          21139776000       0.0%    100.0%      0.0%
 flops    20 x     5 x    96          21194342400       0.0%    100.0%      0.0%
 flops     5 x     5 x   128          77092288000       0.0%    100.0%      0.0%
 flops    13 x     5 x   128          98290832640       0.0%    100.0%      0.0%
 flops     5 x    13 x   128          98502826240       0.0%    100.0%      0.0%
 flops    20 x    20 x   112         102893414400       0.0%    100.0%      0.0%
 flops    13 x    13 x   128         118476863232       0.0%    100.0%      0.0%
 flops    20 x    13 x   128         172477992960       0.0%    100.0%      0.0%
 flops    13 x    20 x   128         172732385280       0.0%    100.0%      0.0%
 flops    20 x    20 x    96         176388710400       0.0%    100.0%      0.0%
 flops     5 x    20 x   128         183211392000       0.0%    100.0%      0.0%
 flops    20 x     5 x   128         183684300800       0.0%    100.0%      0.0%
 flops    20 x    20 x   128        1528702156800       0.0%    100.0%      0.0%
 flops inhomo. stacks                           0       0.0%      0.0%      0.0%
 flops total                         3.114231E+12       0.0%    100.0%      0.0%
 flops max/rank                     28.313978E+09       0.0%    100.0%      0.0%
 matmuls inhomo. stacks                         0       0.0%      0.0%      0.0%
 matmuls total                           75147968       0.0%    100.0%      0.0%
 number of processed stacks                900816       0.0%    100.0%      0.0%
 average stack size                                     0.0      83.4       0.0
 marketing flops                     6.430989E+12
 -------------------------------------------------------------------------------
 # multiplications                             49
 max memory usage/rank               1.632965E+09
 # max total images/rank                        2
 # max 3D layers                                1
 # MPI messages exchanged                  181888
 MPI messages size (bytes):
  total size                       111.183774E+09
  min size                         311.808000E+03
  max size                         841.728000E+03
  average size                     611.276000E+03
 MPI breakdown and total messages size (bytes):
             size <=      128                   0                        0
       128 < size <=     8192                   0                        0
      8192 < size <=    32768                   0                        0
     32768 < size <=   131072                   0                        0
    131072 < size <=  4194304              181888             111183781632
   4194304 < size <= 16777216                   0                        0
  16777216 < size                               0                        0
 -------------------------------------------------------------------------------

 *** WARNING in dbcsr_mm.F:290 :: Using a non-square number of MPI ranks ***
 *** might lead to poor performance. Used ranks: 128 Suggested: 121 256  ***

 -------------------------------------------------------------------------------
 -                                                                             -
 -                      DBCSR MESSAGE PASSING PERFORMANCE                      -
 -                                                                             -
 -------------------------------------------------------------------------------
 ROUTINE             CALLS      AVE VOLUME [Bytes]
 MP_Bcast               28                     12.
 MP_Allreduce          417                     11.
 MP_Alltoall          1384                 603112.
 MP_ISend             3136                 289127.
 MP_IRecv             3136                 282557.
 -------------------------------------------------------------------------------

 -------------------------------------------------------------------------------
 -                                                                             -
 -                                DBM STATISTICS                               -
 -                                                                             -
 -------------------------------------------------------------------------------
    M  x    N  x    K                                          COUNT     PERCENT
 -------------------------------------------------------------------------------

 -------------------------------------------------------------------------------
 -                                                                             -
 -                                GRID STATISTICS                              -
 -                                                                             -
 -------------------------------------------------------------------------------
 LP    KERNEL             BACKEND                              COUNT     PERCENT
 4     collocate general  REF                               19731810      22.59%
 4     integrate general  REF                               19599858      22.44%
 3     collocate general  REF                               13266162      15.19%
 3     integrate general  REF                               13210452      15.13%
 2     collocate general  REF                               10536372      12.07%
 2     integrate general  REF                               10321344      11.82%
 5     integrate general  REF                                 402690       0.46%
 0     collocate general  REF                                 129792       0.15%
 0     integrate general  REF                                  64896       0.07%
 1     integrate general  REF                                  64896       0.07%
 -------------------------------------------------------------------------------

 MEMORY| Estimated peak process memory [MiB]                                1812

 -------------------------------------------------------------------------------
 ----                             MULTIGRID INFO                            ----
 -------------------------------------------------------------------------------
 count for grid        1:        1093001          cutoff [a.u.]          200.00
 count for grid        2:        1086964          cutoff [a.u.]           66.67
 count for grid        3:         708723          cutoff [a.u.]           22.22
 count for grid        4:         545119          cutoff [a.u.]            7.41
 total gridlevel count  :        3433807

 -------------------------------------------------------------------------------
 -                                                                             -
 -                         MESSAGE PASSING PERFORMANCE                         -
 -                                                                             -
 -------------------------------------------------------------------------------

 ROUTINE             CALLS      AVE VOLUME [Bytes]
 MP_Group                4
 MP_Bcast              250                2280170.
 MP_Allreduce         3657                  29196.
 MP_Sync               102
 MP_Alltoall          2962               17296676.
 MP_SendRecv           508                   5871.
 MP_ISendRecv        24892                  61740.
 MP_Wait             43978
 MP_comm_split          49
 MP_ISend            17988                 256269.
 MP_IRecv            17988                 256269.
 MP_Recv               183                1677056.
 MP_Write_All            3                1797408.
 -------------------------------------------------------------------------------


 -------------------------------------------------------------------------------
 -                                                                             -
 -                           R E F E R E N C E S                               -
 -                                                                             -
 -------------------------------------------------------------------------------
 
 CP2K version 2022.1, the CP2K developers group (2022).
 CP2K is freely available from https://www.cp2k.org/ .

 Kuehne,Thomas D.; Iannuzzi,Marcella; Del Ben,Mauro;
 Rybkin,Vladimir V.; Seewald,Patrick; Stein,Frederick; Laino,Teodoro;
 Khaliullin,Rustam Z.; Schuett,Ole; Schiffmann,Florian; Golze,Dorothea;
 Wilhelm,Jan; Chulkov,Sergey; Bani-Hashemian,Mohammad Hossein;
 Weber,Valery; Borstnik,Urban; Taillefumier,Mathieu;
 Jakobovits,Alice Shoshana; Lazzaro,Alfio; Pabst,Hans; Mueller,Tiziano;
 Schade,Robert; Guidon,Manuel; Andermatt,Samuel; Holmberg,Nico;
 Schenter,Gregory K.; Hehn,Anna; Bussy,Augustin; Belleflamme,Fabian;
 Tabacchi,Gloria; Gloess,Andreas; Lass,Michael; Bethune,Iain;
 Mundy,Christopher J.; Plessl,Christian; Watkins,Matt;
 VandeVondele,Joost; Krack,Matthias; Hutter,Juerg. 
 The Journal of Chemical Physics, 152 (19), (2020). 
 CP2K: An electronic structure and molecular dynamics software package -
 Quickstep: Efficient and accurate electronic structure calculations.
 https://doi.org/10.1063/5.0007045

 Goerigk, Lars; Hansen, Andreas; Bauer, Christoph; Ehrlich, Stephan;
 Najibi, Asim; Grimme, Stefan. , 19 (48), (2017). 
 A look at the density functional theory zoo with the advanced GMTKN55 database
 for general main group thermochemistry, kinetics and noncovalent interactions.
 https://doi.org/10.1039/C7CP04913G

 Bani-Hashemian, MH; Bruck, S; Luisier, M; VandeVondele, J. 
 JOURNAL OF CHEMICAL PHYSICS, 144 (4), 044113 (2016). 
 A generalized Poisson solver for first-principles device simulations.
 https://doi.org/10.1063/1.4940796

 Schuett, Ole; Messmer, Peter; Hutter, Juerg; VandeVondele, Joost. 
 Electronic Structure Calculations on Graphics Processing Units, John
 Wiley & Sons, Ltd, 173-190 (2016). 
 GPU-Accelerated Sparse Matrix-Matrix Multiplication for
 Linear Scaling Density Functional Theory.
 https://doi.org/10.1002/9781118670712.ch8

 Heinecke, A; Henry, G; Hutchinson, M; Pabst, H. 
 Proceedings of Intl. Supercomputing Conference, 981-991 (2016). 
 LIBXSMM: Accelerating Small Matrix Multiplications
 by Runtime Code Generation.
 https://doi.org/10.1109/SC.2016.83

 Borstnik, U; VandeVondele, J; Weber, V; Hutter, J. 
 PARALLEL COMPUTING, 40 (5-6), 47-58 (2014). 
 Sparse matrix multiplication: The distributed block-compressed sparse
 row library.
 https://doi.org/10.1016/j.parco.2014.03.012

 Hutter, J; Iannuzzi, M; Schiffmann, F; VandeVondele, J. 
 WIREs Comput Mol Sci., 4 (1), 15-25 (2014). 
 CP2K: atomistic simulations of condensed matter systems.
 https://doi.org/10.1002/wcms.1159

 Marek, A; Blum, V; Johanni, R; Havu, V; Lang, B; Auckenthaler, T;
 Heinecke, A; Bungartz, H; Lederer, H. 
 Journal of Physics: Condensed Matter, 26 (21), (2014). 
 The ELPA library: scalable parallel eigenvalue solutions for
 electronic structure
 theory and computational science.
 https://doi.org/10.1088/0953-8984/26/21/213201

 Grimme, S; Ehrlich, S; Goerigk, L. 
 JOURNAL OF COMPUTATIONAL CHEMISTRY, 32, 1456 (2011). 
 Effect of the damping function in dispersion corrected density functional theory.
 https://doi.org/10.1002/jcc.21759

 Grimme, S; Antony, J; Ehrlich, S; Krieg, H. 
 JOURNAL OF CHEMICAL PHYSICS, 132 (15), 154104 (2010). 
 A consistent and accurate ab initio parametrization of density
 functional dispersion correction (DFT-D) for the 94 elements H-Pu.
 https://doi.org/10.1063/1.3382344

 VandeVondele, J; Hutter, J. 
 JOURNAL OF CHEMICAL PHYSICS, 127 (11), 114105 (2007). 
 Gaussian basis sets for accurate calculations on molecular systems in
 gas and condensed phases.
 https://doi.org/10.1063/1.2770708

 Krack, M. 
 THEORETICAL CHEMISTRY ACCOUNTS, 114 (1-3), 145-152 (2005). 
 Pseudopotentials for H to Kr optimized for gradient-corrected
 exchange-correlation functionals.
 https://doi.org/10.1007/s00214-005-0655-y

 VandeVondele, J; Krack, M; Mohamed, F; Parrinello, M; Chassaing, T;
 Hutter, J. COMPUTER PHYSICS COMMUNICATIONS, 167 (2), 103-128 (2005). 
 QUICKSTEP: Fast and accurate density functional calculations using a
 mixed Gaussian and plane waves approach.
 https://doi.org/10.1016/j.cpc.2004.12.014

 Frigo, M; Johnson, SG. 
 PROCEEDINGS OF THE IEEE, 93 (2), 216-231 (2005). 
 The design and implementation of FFTW3.
 https://doi.org/10.1109/JPROC.2004.840301

 Hartwigsen, C; Goedecker, S; Hutter, J. 
 PHYSICAL REVIEW B, 58 (7), 3641-3662 (1998). 
 Relativistic separable dual-space Gaussian pseudopotentials from H to Rn.
 https://doi.org/10.1103/PhysRevB.58.3641

 Lippert, G; Hutter, J; Parrinello, M. 
 MOLECULAR PHYSICS, 92 (3), 477-487 (1997). 
 A hybrid Gaussian and plane wave density functional scheme.
 https://doi.org/10.1080/002689797170220

 Perdew, JP; Burke, K; Ernzerhof, M. 
 PHYSICAL REVIEW LETTERS, 77 (18), 3865-3868 (1996). 
 Generalized gradient approximation made simple.
 https://doi.org/10.1103/PhysRevLett.77.3865

 Goedecker, S; Teter, M; Hutter, J. 
 PHYSICAL REVIEW B, 54 (3), 1703-1710 (1996). 
 Separable dual-space Gaussian pseudopotentials.
 https://doi.org/10.1103/PhysRevB.54.1703


 -------------------------------------------------------------------------------
 -                                                                             -
 -                                T I M I N G                                  -
 -                                                                             -
 -------------------------------------------------------------------------------
 SUBROUTINE                       CALLS  ASD         SELF TIME        TOTAL TIME
                                MAXIMUM       AVERAGE  MAXIMUM  AVERAGE  MAXIMUM
 CP2K                                 1  1.0    0.037    0.054  341.203  341.205
 qs_forces                            1  2.0    0.002    0.002  340.771  340.772
 qs_energies                          1  3.0    0.000    0.001  334.653  334.656
 scf_env_do_scf                       1  4.0    0.000    0.000  326.592  326.734
 scf_env_do_scf_inner_loop           48  5.0    0.003    0.007  326.591  326.734
 rebuild_ks_matrix                   49  6.9    0.000    0.000  176.344  176.386
 qs_ks_build_kohn_sham_matrix        49  7.9    0.008    0.009  176.343  176.386
 qs_ks_update_qs_env                 48  6.0    0.000    0.000  172.309  172.352
 pw_transfer                       2552 12.2    0.186    0.228  110.402  112.535
 fft_wrap_pw1pw2                   2552 13.2    0.025    0.032  110.216  112.321
 fft_wrap_pw1pw2_200               2258 14.4    7.493    8.763  108.712  110.787
 pw_poisson_solve                    49  8.9    0.005    0.013   95.085   95.135
 fft3d_ps                          2552 15.2   32.033   35.834   88.479   91.956
 qs_scf_new_mos                      48  6.0    0.002    0.007   91.682   91.803
 implicit_poisson_solver_mixed_      49  9.9    2.014    2.465   90.108   90.177
 eigensolver                         48  7.0    0.004    0.006   86.449   86.702
 derive_fft                         294 12.1    0.018    0.022   63.096   63.281
 cp_fm_diag_elpa                     49  8.0    0.001    0.001   60.717   60.877
 cp_fm_redistribute_end              49  9.0    7.955   60.150    8.066   60.211
 cp_fm_diag_elpa_base                49  9.0   51.337   58.741   51.850   59.371
 mp_alltoall_z22v                  2552 17.2   47.110   58.400   47.110   58.400
 qs_rho_update_rho_low               49  6.0    0.000    0.000   55.208   55.220
 calculate_rho_elec                  49  7.0    0.095    0.118   55.207   55.220
 sum_up_and_integrate                49  8.9    0.266    0.327   54.217   54.260
 apply_P_operator                   245 11.1    1.305    1.470   53.971   54.141
 integrate_v_rspace                  49  9.9    0.002    0.004   53.951   54.068
 grid_collocate_task_list            49  8.0   34.825   43.400   34.825   43.400
 grid_integrate_task_list            49 10.9   32.251   39.546   32.251   39.546
 x_to_yz                           1471 16.4    6.233    7.965   35.653   37.174
 rs_pw_transfer                     396 10.4    0.005    0.006   25.076   29.791
 cp_fm_triangular_multiply          144  8.0   26.879   27.225   26.879   27.225
 yz_to_x                            787 16.4    2.143    2.496   19.639   26.861
 qs_vxc_create                       49  8.9    0.001    0.002   24.239   24.544
 xc_vxc_pw_create                    49  9.9    0.417    0.515   24.238   24.543
 density_rs2pw                       49  8.0    0.003    0.004   19.241   24.109
 xc_pw_derive                       294 11.9    0.005    0.005   17.086   18.989
 mp_waitany                       17988 12.4   11.663   16.766   11.663   16.766
 rs_pw_transfer_RS2PW_200            51  9.9    3.348    3.793   11.795   16.477
 apply_poisson_operator_fft          49 10.9    0.001    0.001   15.780   16.064
 apply_inv_laplace_operator_fft     149 11.6    0.373    0.425   14.570   15.072
 potential_pw2rs                     49 10.9    0.015    0.016   13.899   13.999
 mp_alltoall_d11v                   693 10.2    9.282   13.578    9.282   13.578
 xc_pw_divergence                    49 10.9    0.003    0.003   11.477   12.864
 xc_rho_set_and_dset_create          49 10.9    0.242    0.282   11.888   12.608
 rs_gather_matrices                  49 10.9    0.058    0.072    7.789   12.053
 ps_implicit_compute_error_fft       98 10.9    0.616    0.747   10.728   11.497
 ps_implicit_compute_veps            49 10.9    0.285    0.339   10.719   10.898
 pw_scatter_p                      1618 15.4    9.064   10.660    9.064   10.660
 rs_pw_transfer_PW2RS_200            51 12.8    3.851    4.029    8.060    8.277
 gspace_mixing                       47  6.0    0.090    0.110    8.210    8.211
 pw_derive                         1176 13.1    7.458    7.953    7.458    7.953
 -------------------------------------------------------------------------------

 The number of warnings for this run is : 1
 
 -------------------------------------------------------------------------------
  **** **** ******  **  PROGRAM ENDED AT                 2023-12-03 07:03:46.509
 ***** ** ***  *** **   PROGRAM RAN ON                                     cu001
 **    ****   ******    PROGRAM RAN BY                                     jxzhu
 ***** **    ** ** **   PROGRAM PROCESS ID                                 50267
  **** **  *******  **  PROGRAM STOPPED IN /public/home/jxzhu/tmp_calc/dc7ffe131
                                           b817a352c1756235fe5b69672d9dc86/calc/
                                           002900.000/search_hi.000000
