 DBCSR| CPU Multiplication driver                                           XSMM
 DBCSR| Multrec recursion limit                                              512
 DBCSR| Multiplication stack size                                           1000
 DBCSR| Maximum elements for images                                    UNLIMITED
 DBCSR| Multiplicative factor virtual images                                   1
 DBCSR| Use multiplication densification                                       T
 DBCSR| Multiplication size stacks                                             3
 DBCSR| Use memory pool for CPU allocation                                     F
 DBCSR| Number of 3D layers                                               SINGLE
 DBCSR| Use MPI memory allocation                                              F
 DBCSR| Use RMA algorithm                                                      F
 DBCSR| Use Communication thread                                               T
 DBCSR| Communication thread load                                             87
 DBCSR| MPI: My node id                                                        0
 DBCSR| MPI: Number of nodes                                                  32
 DBCSR| OMP: Current number of threads                                         1
 DBCSR| OMP: Max number of threads                                             1
 DBCSR| Split modifier for TAS multiplication algorithm                  1.0E+00


  **** **** ******  **  PROGRAM STARTED AT               2023-12-03 04:38:40.702
 ***** ** ***  *** **   PROGRAM STARTED ON                                 cu042
 **    ****   ******    PROGRAM STARTED BY                                 jxzhu
 ***** **    ** ** **   PROGRAM PROCESS ID                                 30224
  **** **  *******  **  PROGRAM STARTED IN /public/home/jxzhu/tmp_calc/04c0855f9
                                           8753fac23fde4df51ba20f3741a9e9a/calc/
                                           task.002.000018

 CP2K| version string:                                       CP2K version 2022.1
 CP2K| source code revision number:                                  git:2caeb6f
 CP2K| cp2kflags: omp libint fftw3 libxc elpa parallel mpi3 scalapack cosma xsmm
 CP2K|             plumed2 spglib mkl sirius libvori libbqb
 CP2K| is freely available from                            https://www.cp2k.org/
 CP2K| Program compiled at                           Mon Jul 3 17:37:06 CST 2023
 CP2K| Program compiled on                                                 mu003
 CP2K| Program compiled for                                                local
 CP2K| Data directory path                             /public/home/jxzhu/basis/
 CP2K| Input file name                                                 input.inp
 
 GLOBAL| Force Environment number                                              1
 GLOBAL| Basis set file name                                        BASIS_MOLOPT
 GLOBAL| Potential file name                                      GTH_POTENTIALS
 GLOBAL| MM Potential file name                                     MM_POTENTIAL
 GLOBAL| Coordinate file name                                          coord.xyz
 GLOBAL| Method name                                                        CP2K
 GLOBAL| Project name                                                       cp2k
 GLOBAL| Run type                                                   ENERGY_FORCE
 GLOBAL| FFT library                                                       FFTW3
 GLOBAL| Diagonalization library                                            ELPA
 GLOBAL| Minimum number of eigenvectors for ELPA usage                        16
 GLOBAL| Orthonormality check for eigenvectors                          DISABLED
 GLOBAL| Matrix multiplication library                                     COSMA
 GLOBAL| All-to-all communication in single precision                          F
 GLOBAL| FFTs using library dependent lengths                                  T
 GLOBAL| Grid backend                                                       AUTO
 GLOBAL| Global print level                                               MEDIUM
 GLOBAL| MPI I/O enabled                                                       T
 GLOBAL| Total number of message passing processes                            32
 GLOBAL| Number of threads for this process                                    1
 GLOBAL| This output is from process                                           0
 GLOBAL| Stack size for threads created by OpenMP (OMP_STACKSIZE)        default
 GLOBAL| CPU model name                 Intel(R) Xeon(R) Gold 6338 CPU @ 2.00GHz
 GLOBAL| CPUID                                                              1003

 MEMORY| system memory details [Kb]
 MEMORY|                        rank 0           min           max       average
 MEMORY| MemTotal            263619172     263619172     263619172     263619172
 MEMORY| MemFree             174392124     174392124     174392744     174392724
 MEMORY| Buffers                  3320          3320          3320          3320
 MEMORY| Cached                9028076       9028076       9028076       9028076
 MEMORY| Slab                  1941692       1941692       1941692       1941692
 MEMORY| SReclaimable           246912        246912        246912        246912
 MEMORY| MemLikelyFree       183670432     183670432     183671052     183671032


 *** Fundamental physical constants (SI units) ***

 *** Literature: B. J. Mohr and B. N. Taylor,
 ***             CODATA recommended values of the fundamental physical
 ***             constants: 2006, Web Version 5.1
 ***             http://physics.nist.gov/constants

 Speed of light in vacuum [m/s]                             2.99792458000000E+08
 Magnetic constant or permeability of vacuum [N/A**2]       1.25663706143592E-06
 Electric constant or permittivity of vacuum [F/m]          8.85418781762039E-12
 Planck constant (h) [J*s]                                  6.62606896000000E-34
 Planck constant (h-bar) [J*s]                              1.05457162825177E-34
 Elementary charge [C]                                      1.60217648700000E-19
 Electron mass [kg]                                         9.10938215000000E-31
 Electron g factor [ ]                                     -2.00231930436220E+00
 Proton mass [kg]                                           1.67262163700000E-27
 Fine-structure constant                                    7.29735253760000E-03
 Rydberg constant [1/m]                                     1.09737315685270E+07
 Avogadro constant [1/mol]                                  6.02214179000000E+23
 Boltzmann constant [J/K]                                   1.38065040000000E-23
 Atomic mass unit [kg]                                      1.66053878200000E-27
 Bohr radius [m]                                            5.29177208590000E-11

 *** Conversion factors ***

 [u] -> [a.u.]                                              1.82288848426455E+03
 [Angstrom] -> [Bohr] = [a.u.]                              1.88972613288564E+00
 [a.u.] = [Bohr] -> [Angstrom]                              5.29177208590000E-01
 [a.u.] -> [s]                                              2.41888432650478E-17
 [a.u.] -> [fs]                                             2.41888432650478E-02
 [a.u.] -> [J]                                              4.35974393937059E-18
 [a.u.] -> [N]                                              8.23872205491840E-08
 [a.u.] -> [K]                                              3.15774647902944E+05
 [a.u.] -> [kJ/mol]                                         2.62549961709828E+03
 [a.u.] -> [kcal/mol]                                       6.27509468713739E+02
 [a.u.] -> [Pa]                                             2.94210107994716E+13
 [a.u.] -> [bar]                                            2.94210107994716E+08
 [a.u.] -> [atm]                                            2.90362800883016E+08
 [a.u.] -> [eV]                                             2.72113838565563E+01
 [a.u.] -> [Hz]                                             6.57968392072181E+15
 [a.u.] -> [1/cm] (wave numbers)                            2.19474631370540E+05
 [a.u./Bohr**2] -> [1/cm]                                   5.14048714338585E+03
 

 CELL_TOP| Volume [angstrom^3]:                                     12686.086737
 CELL_TOP| Vector a [angstrom    16.869     0.000     0.000   |a| =    16.869000
 CELL_TOP| Vector b [angstrom    -8.434    14.609     0.000   |b| =    16.868929
 CELL_TOP| Vector c [angstrom     0.000     0.000    51.478   |c| =    51.477900
 CELL_TOP| Angle (b,c), alpha [degree]:                                90.000000
 CELL_TOP| Angle (a,c), beta  [degree]:                                90.000000
 CELL_TOP| Angle (a,b), gamma [degree]:                               120.000140
 CELL_TOP| Numerically orthorhombic:                                          NO
 
 GENERATE|  Preliminary Number of Bonds generated:                             0
 GENERATE|  Achieved consistency in connectivity generation.

 CELL| Volume [angstrom^3]:                                         12686.086737
 CELL| Vector a [angstrom]:      16.869     0.000     0.000   |a| =    16.869000
 CELL| Vector b [angstrom]:      -8.434    14.609     0.000   |b| =    16.868929
 CELL| Vector c [angstrom]:       0.000     0.000    51.478   |c| =    51.477900
 CELL| Angle (b,c), alpha [degree]:                                    90.000000
 CELL| Angle (a,c), beta  [degree]:                                    90.000000
 CELL| Angle (a,b), gamma [degree]:                                   120.000140
 CELL| Numerically orthorhombic:                                              NO

 CELL_REF| Volume [angstrom^3]:                                     12686.086737
 CELL_REF| Vector a [angstrom    16.869     0.000     0.000   |a| =    16.869000
 CELL_REF| Vector b [angstrom    -8.434    14.609     0.000   |b| =    16.868929
 CELL_REF| Vector c [angstrom     0.000     0.000    51.478   |c| =    51.477900
 CELL_REF| Angle (b,c), alpha [degree]:                                90.000000
 CELL_REF| Angle (a,c), beta  [degree]:                                90.000000
 CELL_REF| Angle (a,b), gamma [degree]:                               120.000140
 CELL_REF| Numerically orthorhombic:                                          NO

 *******************************************************************************
 *******************************************************************************
 **                                                                           **
 **     #####                         ##              ##                      **
 **    ##   ##            ##          ##              ##                      **
 **   ##     ##                       ##            ######                    **
 **   ##     ##  ##   ##  ##   #####  ##  ##   ####   ##    #####    #####    **
 **   ##     ##  ##   ##  ##  ##      ## ##   ##      ##   ##   ##  ##   ##   **
 **   ##  ## ##  ##   ##  ##  ##      ####     ###    ##   ######   ######    **
 **    ##  ###   ##   ##  ##  ##      ## ##      ##   ##   ##       ##        **
 **     #######   #####   ##   #####  ##  ##  ####    ##    #####   ##        **
 **           ##                                                    ##        **
 **                                                                           **
 **                                                ... make the atoms dance   **
 **                                                                           **
 **            Copyright (C) by CP2K developers group (2000-2022)             **
 **                      J. Chem. Phys. 152, 194103 (2020)                    **
 **                                                                           **
 *******************************************************************************

 DFT| Spin restricted Kohn-Sham (RKS) calculation                            RKS
 DFT| Multiplicity                                                             1
 DFT| Number of spin states                                                    1
 DFT| Charge                                                                   0
 DFT| Self-interaction correction (SIC)                                       NO
 DFT| Cutoffs: density                                              1.000000E-10
 DFT|          gradient                                             1.000000E-10
 DFT|          tau                                                  1.000000E-10
 DFT|          cutoff_smoothing_range                               0.000000E+00
 DFT| XC density smoothing                                                  NONE
 DFT| XC derivatives                                                          PW

 FUNCTIONAL| PBE:
 FUNCTIONAL| J.P.Perdew, K.Burke, M.Ernzerhof, Phys. Rev. Letter, vol. 77, n 18,
 FUNCTIONAL|  pp. 3865-3868, (1996){spin unpolarized}                           

 vdW POTENTIAL|                                                   Pair Potential
 vdW POTENTIAL|          DFT-D3 (Version 3.1)
 vdW POTENTIAL|          Potential Form: S. Grimme et al, JCP 132: 154104 (2010)
 vdW POTENTIAL|          Zero Damping
 vdW POTENTIAL|          Cutoff Radius [Bohr]:                             20.00
 vdW POTENTIAL|          s6 Scaling Factor:                               1.0000
 vdW POTENTIAL|          sr6 Scaling Factor:                              1.2170
 vdW POTENTIAL|          s8 Scaling Factor:                               0.7220
 vdW POTENTIAL|          Cutoff for CN calculation:                   0.1000E-05

 QS| Method:                                                                 GPW
 QS| Density plane wave grid type                        NON-SPHERICAL FULLSPACE
 QS| Number of grid levels:                                                    4
 QS| Density cutoff [a.u.]:                                                200.0
 QS| Multi grid cutoff [a.u.]: 1) grid level                               200.0
 QS|                           2) grid level                                66.7
 QS|                           3) grid level                                22.2
 QS|                           4) grid level                                 7.4
 QS| Grid level progression factor:                                          3.0
 QS| Relative density cutoff [a.u.]:                                        20.0
 QS| Interaction thresholds: eps_pgf_orb:                                3.2E-07
 QS|                         eps_filter_matrix:                          0.0E+00
 QS|                         eps_core_charge:                            1.0E-15
 QS|                         eps_rho_gspace:                             1.0E-13
 QS|                         eps_rho_rspace:                             1.0E-13
 QS|                         eps_gvg_rspace:                             3.2E-07
 QS|                         eps_ppl:                                    1.0E-02
 QS|                         eps_ppnl:                                   3.2E-09


 ATOMIC KIND INFORMATION

  1. Atomic kind: Pt                                    Number of atoms:     216

     Orbital Basis Set                      DZVP-A5-Q10-323-MOL-T1-DERIVED_SET-1

       Number of orbital shell sets:                                           1
       Number of orbital shells:                                               6
       Number of primitive Cartesian functions:                                5
       Number of Cartesian basis functions:                                   23
       Number of spherical basis functions:                                   20
       Norm type:                                                              2

       Normalised Cartesian orbitals:

                        Set   Shell   Orbital            Exponent    Coefficient

                          1       1    2s                2.521825       0.177473
                                                         1.453920      -0.063399
                                                         0.614053      -0.407089
                                                         0.232656       0.262254
                                                         0.074788       0.047371

                          1       2    3s                2.521825      -0.049056
                                                         1.453920       0.044904
                                                         0.614053      -0.009756
                                                         0.232656      -0.144709
                                                         0.074788       0.144085

                          1       3    3px               2.521825      -0.317572
                                                         1.453920       0.534826
                                                         0.614053      -0.489458
                                                         0.232656       0.245631
                                                         0.074788       0.018221
                          1       3    3py               2.521825      -0.317572
                                                         1.453920       0.534826
                                                         0.614053      -0.489458
                                                         0.232656       0.245631
                                                         0.074788       0.018221
                          1       3    3pz               2.521825      -0.317572
                                                         1.453920       0.534826
                                                         0.614053      -0.489458
                                                         0.232656       0.245631
                                                         0.074788       0.018221

                          1       4    4dx2              2.521825       3.008522
                                                         1.453920      -1.224251
                                                         0.614053       0.225691
                                                         0.232656       0.125144
                                                         0.074788      -0.015348
                          1       4    4dxy              2.521825       5.210912
                                                         1.453920      -2.120465
                                                         0.614053       0.390909
                                                         0.232656       0.216756
                                                         0.074788      -0.026584
                          1       4    4dxz              2.521825       5.210912
                                                         1.453920      -2.120465
                                                         0.614053       0.390909
                                                         0.232656       0.216756
                                                         0.074788      -0.026584
                          1       4    4dy2              2.521825       3.008522
                                                         1.453920      -1.224251
                                                         0.614053       0.225691
                                                         0.232656       0.125144
                                                         0.074788      -0.015348
                          1       4    4dyz              2.521825       5.210912
                                                         1.453920      -2.120465
                                                         0.614053       0.390909
                                                         0.232656       0.216756
                                                         0.074788      -0.026584
                          1       4    4dz2              2.521825       3.008522
                                                         1.453920      -1.224251
                                                         0.614053       0.225691
                                                         0.232656       0.125144
                                                         0.074788      -0.015348

                          1       5    5dx2              2.521825       0.698026
                                                         1.453920      -1.511486
                                                         0.614053      -0.335394
                                                         0.232656      -0.025564
                                                         0.074788      -0.002699
                          1       5    5dxy              2.521825       1.209017
                                                         1.453920      -2.617970
                                                         0.614053      -0.580920
                                                         0.232656      -0.044277
                                                         0.074788      -0.004674
                          1       5    5dxz              2.521825       1.209017
                                                         1.453920      -2.617970
                                                         0.614053      -0.580920
                                                         0.232656      -0.044277
                                                         0.074788      -0.004674
                          1       5    5dy2              2.521825       0.698026
                                                         1.453920      -1.511486
                                                         0.614053      -0.335394
                                                         0.232656      -0.025564
                                                         0.074788      -0.002699
                          1       5    5dyz              2.521825       1.209017
                                                         1.453920      -2.617970
                                                         0.614053      -0.580920
                                                         0.232656      -0.044277
                                                         0.074788      -0.004674
                          1       5    5dz2              2.521825       0.698026
                                                         1.453920      -1.511486
                                                         0.614053      -0.335394
                                                         0.232656      -0.025564
                                                         0.074788      -0.002699

                          1       6    6dx2              2.521825       0.831079
                                                         1.453920      -0.709226
                                                         0.614053      -0.137351
                                                         0.232656       0.068642
                                                         0.074788       0.011745
                          1       6    6dxy              2.521825       1.439472
                                                         1.453920      -1.228415
                                                         0.614053      -0.237899
                                                         0.232656       0.118891
                                                         0.074788       0.020343
                          1       6    6dxz              2.521825       1.439472
                                                         1.453920      -1.228415
                                                         0.614053      -0.237899
                                                         0.232656       0.118891
                                                         0.074788       0.020343
                          1       6    6dy2              2.521825       0.831079
                                                         1.453920      -0.709226
                                                         0.614053      -0.137351
                                                         0.232656       0.068642
                                                         0.074788       0.011745
                          1       6    6dyz              2.521825       1.439472
                                                         1.453920      -1.228415
                                                         0.614053      -0.237899
                                                         0.232656       0.118891
                                                         0.074788       0.020343
                          1       6    6dz2              2.521825       0.831079
                                                         1.453920      -0.709226
                                                         0.614053      -0.137351
                                                         0.232656       0.068642
                                                         0.074788       0.011745

       Atomic covalent radius [Angstrom]:                                  1.300

       Atomic van der Waals radius [Angstrom]:                             1.750

     GTH Potential information for                                   GTH-PBE-q10

       Description:                       Goedecker-Teter-Hutter pseudopotential
                                           Goedecker et al., PRB 54, 1703 (1996)
                                          Hartwigsen et al., PRB 58, 3641 (1998)
                                                      Krack, TCA 114, 145 (2005)

       Gaussian exponent of the core charge distribution:               1.317676
       Electronic configuration (s p d ...):                           1   0   9

       Parameters of the local part of the GTH pseudopotential:

                          rloc        C1          C2          C3          C4
                        0.616000   11.313635

       Parameters of the non-local part of the GTH pseudopotential:

                   l      r(l)      h(i,j,l)

                   0    0.550904    4.733491   -1.784594
                                   -1.784594    2.303901
                   1    0.674138    2.534798   -1.778066
                                   -1.778066    2.103836
                   2    0.457392   -7.264011    2.558665
                                    2.558665   -2.901253


 MOLECULE KIND INFORMATION


 All atoms are their own molecule, skipping detailed information


 TOTAL NUMBERS AND MAXIMUM NUMBERS

  Total number of            - Atomic kinds:                                   1
                             - Atoms:                                        216
                             - Shell sets:                                   216
                             - Shells:                                      1296
                             - Primitive Cartesian functions:               1080
                             - Cartesian basis functions:                   4968
                             - Spherical basis functions:                   4320

  Maximum angular momentum of- Orbital basis functions:                        2
                             - Local part of the GTH pseudopotential:          0
                             - Non-local part of the GTH pseudopotential:      4


 MODULE QUICKSTEP:  ATOMIC COORDINATES IN angstrom

 Atom  Kind  Element       X           Y           Z          Z(eff)       Mass
    1   1 Pt  78       2.209133    0.324470   19.684934      10.0000    195.0840
    2   1 Pt  78       5.049133    0.464470   19.724938      10.0000    195.0840
    3   1 Pt  78       7.849133    0.454470   19.944936      10.0000    195.0840
    4   1 Pt  78      10.729133    0.234470   19.934937      10.0000    195.0840
    5   1 Pt  78      13.459133    0.364470   19.914933      10.0000    195.0840
    6   1 Pt  78      16.299134    0.414470   19.884934      10.0000    195.0840
    7   1 Pt  78       3.799133    2.864470   19.904935      10.0000    195.0840
    8   1 Pt  78       6.469133    2.874470   19.974934      10.0000    195.0840
    9   1 Pt  78       9.239133    2.814470   20.004937      10.0000    195.0840
   10   1 Pt  78      12.099133    2.654470   20.004937      10.0000    195.0840
   11   1 Pt  78      14.809133    2.774471   19.804936      10.0000    195.0840
   12   1 Pt  78       0.899133    2.924470   19.894936      10.0000    195.0840
   13   1 Pt  78       5.139133    5.344470   19.864938      10.0000    195.0840
   14   1 Pt  78       7.899132    5.244470   19.864938      10.0000    195.0840
   15   1 Pt  78      10.769133    5.124470   19.914933      10.0000    195.0840
   16   1 Pt  78      13.449133    5.174471   19.914933      10.0000    195.0840
   17   1 Pt  78      -0.510867    5.314470   19.854936      10.0000    195.0840
   18   1 Pt  78       2.379133    5.354470   19.824937      10.0000    195.0840
   19   1 Pt  78       6.579133    7.604470   19.874936      10.0000    195.0840
   20   1 Pt  78       9.359133    7.704470   19.814935      10.0000    195.0840
   21   1 Pt  78      12.209133    7.644470   19.894936      10.0000    195.0840
   22   1 Pt  78      -1.860868    7.794470   20.004937      10.0000    195.0840
   23   1 Pt  78       0.979133    7.774470   19.934937      10.0000    195.0840
   24   1 Pt  78       3.769133    7.804471   19.924935      10.0000    195.0840
   25   1 Pt  78       7.929133   10.124471   19.824937      10.0000    195.0840
   26   1 Pt  78      10.769133   10.124471   19.914933      10.0000    195.0840
   27   1 Pt  78      -3.160868   10.174472   19.824937      10.0000    195.0840
   28   1 Pt  78      -0.410867   10.134471   19.964936      10.0000    195.0840
   29   1 Pt  78       2.309133   10.134471   19.934937      10.0000    195.0840
   30   1 Pt  78       5.229133   10.244471   19.864938      10.0000    195.0840
   31   1 Pt  78       9.359133   12.544470   19.924935      10.0000    195.0840
   32   1 Pt  78      -4.730868   12.494471   19.734937      10.0000    195.0840
   33   1 Pt  78      -2.000868   12.674472   19.804936      10.0000    195.0840
   34   1 Pt  78       0.889133   12.524471   19.924935      10.0000    195.0840
   35   1 Pt  78       3.759133   12.574471   19.794938      10.0000    195.0840
   36   1 Pt  78       6.549133   12.674472   19.904935      10.0000    195.0840
   37   1 Pt  78       0.779133    1.324470   22.204934      10.0000    195.0840
   38   1 Pt  78       3.569133    1.234470   22.094937      10.0000    195.0840
   39   1 Pt  78       6.309133    1.354470   22.144936      10.0000    195.0840
   40   1 Pt  78       9.229133    1.174470   22.354936      10.0000    195.0840
   41   1 Pt  78      12.069132    1.154470   22.344933      10.0000    195.0840
   42   1 Pt  78      14.749132    1.174470   22.274934      10.0000    195.0840
   43   1 Pt  78       2.249133    3.634470   22.194936      10.0000    195.0840
   44   1 Pt  78       4.989133    3.794470   22.284936      10.0000    195.0840
   45   1 Pt  78       7.729133    3.674470   22.264935      10.0000    195.0840
   46   1 Pt  78      10.649133    3.614470   22.274934      10.0000    195.0840
   47   1 Pt  78      13.339133    3.584470   22.294938      10.0000    195.0840
   48   1 Pt  78      -0.620868    3.634470   22.244935      10.0000    195.0840
   49   1 Pt  78       3.569133    6.174470   22.244935      10.0000    195.0840
   50   1 Pt  78       6.359133    6.194471   22.234937      10.0000    195.0840
   51   1 Pt  78       9.179133    6.054471   22.154935      10.0000    195.0840
   52   1 Pt  78      12.049133    6.074470   22.174935      10.0000    195.0840
   53   1 Pt  78      -1.980867    6.124470   22.284936      10.0000    195.0840
   54   1 Pt  78       0.869133    6.034470   22.214936      10.0000    195.0840
   55   1 Pt  78       5.069133    8.564470   22.194936      10.0000    195.0840
   56   1 Pt  78       7.759133    8.544470   22.194936      10.0000    195.0840
   57   1 Pt  78      10.659133    8.524470   22.174935      10.0000    195.0840
   58   1 Pt  78      -3.420868    8.584470   22.194936      10.0000    195.0840
   59   1 Pt  78      -0.550868    8.524470   22.294938      10.0000    195.0840
   60   1 Pt  78       2.289133    8.564470   22.254933      10.0000    195.0840
   61   1 Pt  78       6.489133   10.954470   22.284936      10.0000    195.0840
   62   1 Pt  78       9.249133   11.044471   22.214936      10.0000    195.0840
   63   1 Pt  78      -4.830868   11.024470   22.274934      10.0000    195.0840
   64   1 Pt  78      -2.010868   11.034470   22.144936      10.0000    195.0840
   65   1 Pt  78       0.769133   10.984471   22.324937      10.0000    195.0840
   66   1 Pt  78       3.589133   10.984471   22.284936      10.0000    195.0840
   67   1 Pt  78       7.939133   13.334471   22.234937      10.0000    195.0840
   68   1 Pt  78      -6.050868   13.444471   22.104936      10.0000    195.0840
   69   1 Pt  78      -3.350868   13.474471   22.144936      10.0000    195.0840
   70   1 Pt  78      -0.650867   13.444471   22.194936      10.0000    195.0840
   71   1 Pt  78       2.139132   13.384471   22.214936      10.0000    195.0840
   72   1 Pt  78       5.069133   13.344470   22.214936      10.0000    195.0840
   73   1 Pt  78      -7.650868   14.264470   24.484937      10.0000    195.0840
   74   1 Pt  78      -4.840868   14.204471   24.424935      10.0000    195.0840
   75   1 Pt  78      -1.990868   14.124470   24.484937      10.0000    195.0840
   76   1 Pt  78       0.739133   14.094471   24.574937      10.0000    195.0840
   77   1 Pt  78       3.609133   14.134472   24.534936      10.0000    195.0840
   78   1 Pt  78       6.399133   14.264470   24.614938      10.0000    195.0840
   79   1 Pt  78       2.219133    2.094470   24.464936      10.0000    195.0840
   80   1 Pt  78       5.039133    2.134470   24.484937      10.0000    195.0840
   81   1 Pt  78       7.819133    1.974470   24.664933      10.0000    195.0840
   82   1 Pt  78      10.629133    1.874470   24.604936      10.0000    195.0840
   83   1 Pt  78      13.509133    2.004470   24.684937      10.0000    195.0840
   84   1 Pt  78      -0.650867    2.014470   24.544938      10.0000    195.0840
   85   1 Pt  78       3.669133    4.564470   24.564935      10.0000    195.0840
   86   1 Pt  78       6.369133    4.484471   24.574937      10.0000    195.0840
   87   1 Pt  78       9.309133    4.504471   24.624936      10.0000    195.0840
   88   1 Pt  78      11.959133    4.464471   24.624936      10.0000    195.0840
   89   1 Pt  78      -2.050867    4.474470   24.564935      10.0000    195.0840
   90   1 Pt  78       0.829133    4.474470   24.534936      10.0000    195.0840
   91   1 Pt  78       4.949133    6.994470   24.564935      10.0000    195.0840
   92   1 Pt  78       7.859133    6.884471   24.574937      10.0000    195.0840
   93   1 Pt  78      10.579133    7.034470   24.454934      10.0000    195.0840
   94   1 Pt  78      -3.470868    6.874470   24.534936      10.0000    195.0840
   95   1 Pt  78      -0.570868    6.784471   24.584935      10.0000    195.0840
   96   1 Pt  78       2.219133    6.884471   24.514935      10.0000    195.0840
   97   1 Pt  78       6.379133    9.424471   24.554936      10.0000    195.0840
   98   1 Pt  78       9.149133    9.374470   24.404935      10.0000    195.0840
   99   1 Pt  78      -4.820867    9.334470   24.374936      10.0000    195.0840
  100   1 Pt  78      -2.040868    9.294470   24.464936      10.0000    195.0840
  101   1 Pt  78       0.849133    9.294470   24.524934      10.0000    195.0840
  102   1 Pt  78       3.589133    9.364471   24.554936      10.0000    195.0840
  103   1 Pt  78       7.769133   11.834471   24.574937      10.0000    195.0840
  104   1 Pt  78      -6.320868   11.794470   24.494935      10.0000    195.0840
  105   1 Pt  78      -3.460868   11.754471   24.474938      10.0000    195.0840
  106   1 Pt  78      -0.640867   11.684470   24.534936      10.0000    195.0840
  107   1 Pt  78       2.129133   11.804471   24.644936      10.0000    195.0840
  108   1 Pt  78       4.879132   11.824471   24.534936      10.0000    195.0840
  109   1 Pt  78       2.209133    0.434470   26.752934      10.0000    195.0840
  110   1 Pt  78       5.079133    0.354470   26.632934      10.0000    195.0840
  111   1 Pt  78       7.749133    0.334470   26.872934      10.0000    195.0840
  112   1 Pt  78      10.489133    0.334470   26.932934      10.0000    195.0840
  113   1 Pt  78      13.339133    0.374470   27.012934      10.0000    195.0840
  114   1 Pt  78      16.139134    0.434470   26.892934      10.0000    195.0840
  115   1 Pt  78       3.649133    2.734470   26.812934      10.0000    195.0840
  116   1 Pt  78       6.399133    2.864470   26.962934      10.0000    195.0840
  117   1 Pt  78       9.159133    2.864470   26.902934      10.0000    195.0840
  118   1 Pt  78      11.919132    2.724470   26.922934      10.0000    195.0840
  119   1 Pt  78      14.809133    2.774471   26.942934      10.0000    195.0840
  120   1 Pt  78       0.769133    2.814470   26.862934      10.0000    195.0840
  121   1 Pt  78       4.979133    5.314470   26.882934      10.0000    195.0840
  122   1 Pt  78       7.729133    5.384470   26.892934      10.0000    195.0840
  123   1 Pt  78      10.489133    5.384470   26.872934      10.0000    195.0840
  124   1 Pt  78      13.339133    5.194470   26.812934      10.0000    195.0840
  125   1 Pt  78      -0.540868    5.204470   26.882934      10.0000    195.0840
  126   1 Pt  78       2.289133    5.164470   26.852934      10.0000    195.0840
  127   1 Pt  78       6.359133    7.774470   26.882934      10.0000    195.0840
  128   1 Pt  78       9.189133    7.774470   26.842934      10.0000    195.0840
  129   1 Pt  78      12.029133    7.704470   26.842934      10.0000    195.0840
  130   1 Pt  78      -2.050867    7.604470   26.852934      10.0000    195.0840
  131   1 Pt  78       0.799133    7.594470   26.872934      10.0000    195.0840
  132   1 Pt  78       3.529133    7.724471   26.892934      10.0000    195.0840
  133   1 Pt  78       7.769133   10.214471   26.782934      10.0000    195.0840
  134   1 Pt  78      10.559133   10.124471   26.702934      10.0000    195.0840
  135   1 Pt  78      -3.460868   10.104470   26.712934      10.0000    195.0840
  136   1 Pt  78      -0.630868   10.014471   26.902934      10.0000    195.0840
  137   1 Pt  78       2.049133   10.134471   26.962934      10.0000    195.0840
  138   1 Pt  78       4.919133   10.114470   26.862934      10.0000    195.0840
  139   1 Pt  78       9.149133   12.664470   26.772934      10.0000    195.0840
  140   1 Pt  78      -4.930868   12.554471   26.602934      10.0000    195.0840
  141   1 Pt  78      -2.030868   12.404470   26.882934      10.0000    195.0840
  142   1 Pt  78       0.629133   12.414471   26.902934      10.0000    195.0840
  143   1 Pt  78       3.419133   12.524471   27.022934      10.0000    195.0840
  144   1 Pt  78       6.369133   12.604470   26.942934      10.0000    195.0840
  145   1 Pt  78       0.699133    1.294470   29.112934      10.0000    195.0840
  146   1 Pt  78       3.579133    1.304470   29.022934      10.0000    195.0840
  147   1 Pt  78       6.339133    1.244470   29.202934      10.0000    195.0840
  148   1 Pt  78       9.089133    1.164470   29.232934      10.0000    195.0840
  149   1 Pt  78      11.729134    1.174470   29.202934      10.0000    195.0840
  150   1 Pt  78      14.569134    1.244470   29.292934      10.0000    195.0840
  151   1 Pt  78       2.139132    3.604470   29.132934      10.0000    195.0840
  152   1 Pt  78       4.809133    3.724470   29.332934      10.0000    195.0840
  153   1 Pt  78       7.719133    3.714470   29.242934      10.0000    195.0840
  154   1 Pt  78      10.429133    3.784470   29.292934      10.0000    195.0840
  155   1 Pt  78      13.129133    3.594470   29.242934      10.0000    195.0840
  156   1 Pt  78      -0.860868    3.584470   29.142934      10.0000    195.0840
  157   1 Pt  78       3.519133    6.054471   29.312934      10.0000    195.0840
  158   1 Pt  78       6.229133    6.204470   29.162934      10.0000    195.0840
  159   1 Pt  78       9.059133    6.174470   29.232934      10.0000    195.0840
  160   1 Pt  78      11.889133    6.084470   29.372934      10.0000    195.0840
  161   1 Pt  78      -2.100868    6.014470   29.062934      10.0000    195.0840
  162   1 Pt  78       0.739133    6.004471   29.092934      10.0000    195.0840
  163   1 Pt  78       4.819133    8.534470   29.242934      10.0000    195.0840
  164   1 Pt  78       7.619133    8.644471   29.082934      10.0000    195.0840
  165   1 Pt  78      10.479133    8.654470   29.072934      10.0000    195.0840
  166   1 Pt  78      -3.480868    8.474471   29.092934      10.0000    195.0840
  167   1 Pt  78      -0.680867    8.514471   29.092934      10.0000    195.0840
  168   1 Pt  78       2.029133    8.484471   29.292934      10.0000    195.0840
  169   1 Pt  78       6.259133   10.984471   29.112934      10.0000    195.0840
  170   1 Pt  78       9.169132   11.024470   29.142934      10.0000    195.0840
  171   1 Pt  78      -4.900868   11.034470   28.982934      10.0000    195.0840
  172   1 Pt  78      -2.080868   10.984471   29.102934      10.0000    195.0840
  173   1 Pt  78       0.719133   10.834471   29.342934      10.0000    195.0840
  174   1 Pt  78       3.439133   10.894470   29.182934      10.0000    195.0840
  175   1 Pt  78       7.729133   13.434471   29.092934      10.0000    195.0840
  176   1 Pt  78      -6.360868   13.484471   29.022934      10.0000    195.0840
  177   1 Pt  78      -3.600868   13.464471   29.102934      10.0000    195.0840
  178   1 Pt  78      -0.770868   13.394471   29.242934      10.0000    195.0840
  179   1 Pt  78       2.019133   13.284471   29.192934      10.0000    195.0840
  180   1 Pt  78       4.899133   13.444471   29.252934      10.0000    195.0840
  181   1 Pt  78      -7.930868   14.334471   31.332934      10.0000    195.0840
  182   1 Pt  78      -5.090868   14.374470   31.452934      10.0000    195.0840
  183   1 Pt  78      -2.310868   14.284471   31.552934      10.0000    195.0840
  184   1 Pt  78       0.379133   14.334471   31.672934      10.0000    195.0840
  185   1 Pt  78       3.319133   14.174471   31.512934      10.0000    195.0840
  186   1 Pt  78       6.139133   14.154471   31.662935      10.0000    195.0840
  187   1 Pt  78       1.939133    2.084470   31.462934      10.0000    195.0840
  188   1 Pt  78       4.739133    2.174470   31.562934      10.0000    195.0840
  189   1 Pt  78       7.529133    2.114470   31.502934      10.0000    195.0840
  190   1 Pt  78      10.359133    2.144470   31.602934      10.0000    195.0840
  191   1 Pt  78      13.159133    2.004470   31.542934      10.0000    195.0840
  192   1 Pt  78      -0.870868    2.044470   31.562934      10.0000    195.0840
  193   1 Pt  78       3.349133    4.484471   31.792934      10.0000    195.0840
  194   1 Pt  78       6.099133    4.714471   31.682934      10.0000    195.0840
  195   1 Pt  78       8.869133    4.574470   31.602934      10.0000    195.0840
  196   1 Pt  78      11.779133    4.374470   31.772934      10.0000    195.0840
  197   1 Pt  78      -2.290868    4.394470   31.422934      10.0000    195.0840
  198   1 Pt  78       0.469133    4.474470   31.482934      10.0000    195.0840
  199   1 Pt  78       4.619133    6.964471   31.772934      10.0000    195.0840
  200   1 Pt  78       7.459133    6.984471   31.502934      10.0000    195.0840
  201   1 Pt  78      10.309133    6.874470   31.552934      10.0000    195.0840
  202   1 Pt  78      -3.590868    6.874470   31.632934      10.0000    195.0840
  203   1 Pt  78      -0.920868    6.884471   31.482934      10.0000    195.0840
  204   1 Pt  78       1.939133    6.974471   31.552934      10.0000    195.0840
  205   1 Pt  78       6.029133    9.374470   31.462934      10.0000    195.0840
  206   1 Pt  78       8.829133    9.344471   31.442934      10.0000    195.0840
  207   1 Pt  78      -5.010867    9.494470   31.352934      10.0000    195.0840
  208   1 Pt  78      -2.350868    9.414470   31.302934      10.0000    195.0840
  209   1 Pt  78       0.339133    9.364471   31.752935      10.0000    195.0840
  210   1 Pt  78       3.259133    9.294470   31.582935      10.0000    195.0840
  211   1 Pt  78       7.529133   11.904471   31.342934      10.0000    195.0840
  212   1 Pt  78      -6.400868   11.834471   31.382935      10.0000    195.0840
  213   1 Pt  78      -3.660867   11.864470   31.312934      10.0000    195.0840
  214   1 Pt  78      -0.880868   11.934471   31.682934      10.0000    195.0840
  215   1 Pt  78       1.889133   11.834471   31.572934      10.0000    195.0840
  216   1 Pt  78       4.609133   11.884471   31.512934      10.0000    195.0840




 SCF PARAMETERS         Density guess:                                   RESTART
                        --------------------------------------------------------
                        max_scf:                                             500
                        max_scf_history:                                       0
                        max_diis:                                              4
                        --------------------------------------------------------
                        eps_scf:                                        1.00E-06
                        eps_scf_history:                                0.00E+00
                        eps_diis:                                       1.00E-01
                        eps_eigval:                                     1.00E-05
                        --------------------------------------------------------
                        level_shift [a.u.]:                             0.000000
                        added MOs                                       500    0
                        --------------------------------------------------------
                        Mixing method:                            BROYDEN_MIXING
                                                charge density mixing in g-space
                        --------------------------------------------------------
                        Smear method:                                FERMI_DIRAC
                        Electronic temperature [K]:                        300.0
                        Electronic temperature [a.u.]:                  9.50E-04
                        Accuracy threshold:                             1.00E-10
                        --------------------------------------------------------
                        No outer SCF

 PW_GRID| Information for grid number                                          1
 PW_GRID| Grid distributed over                                    32 processors
 PW_GRID| Real space group dimensions                                    32    1
 PW_GRID| the grid is blocked:                                                NO
 PW_GRID| Cutoff [a.u.]                                                    200.0
 PW_GRID| spherical cutoff:                                                   NO
 PW_GRID|   Bounds   1           -105     104                Points:         210
 PW_GRID|   Bounds   2           -105     104                Points:         210
 PW_GRID|   Bounds   3           -315     314                Points:         630
 PW_GRID| Volume element (a.u.^3)  0.3081E-02     Volume (a.u.^3)     85609.9578
 PW_GRID| Grid span                                                    FULLSPACE
 PW_GRID|   Distribution                         Average         Max         Min
 PW_GRID|   G-Vectors                           868218.8      868350      868140
 PW_GRID|   G-Rays                                4134.4        4135        4134
 PW_GRID|   Real Space Points                   868218.8      926100      793800

 PW_GRID| Information for grid number                                          2
 PW_GRID| Number of the reference grid                                         1
 PW_GRID| Grid distributed over                                    32 processors
 PW_GRID| Real space group dimensions                                    32    1
 PW_GRID| the grid is blocked:                                                NO
 PW_GRID| Cutoff [a.u.]                                                     66.7
 PW_GRID| spherical cutoff:                                                   NO
 PW_GRID|   Bounds   1            -60      59                Points:         120
 PW_GRID|   Bounds   2            -60      59                Points:         120
 PW_GRID|   Bounds   3           -180     179                Points:         360
 PW_GRID| Volume element (a.u.^3)  0.1651E-01     Volume (a.u.^3)     85609.9578
 PW_GRID| Grid span                                                    FULLSPACE
 PW_GRID|   Distribution                         Average         Max         Min
 PW_GRID|   G-Vectors                           162000.0      162840      161280
 PW_GRID|   G-Rays                                1350.0        1357        1344
 PW_GRID|   Real Space Points                   162000.0      172800      129600

 PW_GRID| Information for grid number                                          3
 PW_GRID| Number of the reference grid                                         1
 PW_GRID| Grid distributed over                                    32 processors
 PW_GRID| Real space group dimensions                                    32    1
 PW_GRID| the grid is blocked:                                                NO
 PW_GRID| Cutoff [a.u.]                                                     22.2
 PW_GRID| spherical cutoff:                                                   NO
 PW_GRID|   Bounds   1            -35      34                Points:          70
 PW_GRID|   Bounds   2            -35      34                Points:          70
 PW_GRID|   Bounds   3           -105     104                Points:         210
 PW_GRID| Volume element (a.u.^3)  0.8320E-01     Volume (a.u.^3)     85609.9578
 PW_GRID| Grid span                                                    FULLSPACE
 PW_GRID|   Distribution                         Average         Max         Min
 PW_GRID|   G-Vectors                            32156.2       32340       31990
 PW_GRID|   G-Rays                                 459.4         462         457
 PW_GRID|   Real Space Points                    32156.2       44100       29400

 PW_GRID| Information for grid number                                          4
 PW_GRID| Number of the reference grid                                         1
 PW_GRID| Grid distributed over                                    32 processors
 PW_GRID| Real space group dimensions                                    32    1
 PW_GRID| the grid is blocked:                                                NO
 PW_GRID| Cutoff [a.u.]                                                      7.4
 PW_GRID| spherical cutoff:                                                   NO
 PW_GRID|   Bounds   1            -20      19                Points:          40
 PW_GRID|   Bounds   2            -20      19                Points:          40
 PW_GRID|   Bounds   3            -60      59                Points:         120
 PW_GRID| Volume element (a.u.^3)  0.4459         Volume (a.u.^3)     85609.9578
 PW_GRID| Grid span                                                    FULLSPACE
 PW_GRID|   Distribution                         Average         Max         Min
 PW_GRID|   G-Vectors                             6000.0        6120        5920
 PW_GRID|   G-Rays                                 150.0         153         148
 PW_GRID|   Real Space Points                     6000.0        9600        4800

 POISSON| Solver                                          IMPLICIT (GENERALIZED)
 POISSON| Boundary Condition                                PERIODIC & DIRICHLET
 POISSON| Maximum number of iterations                                        30
 POISSON| Convergence threshold                                         1.00E-08
 POISSON| Dielectric Constant                                              80.00
 POISSON| Relaxation parameter                                          1.00E+00

 RS_GRID| Information for grid number                                          1
 RS_GRID|   Bounds   1           -105     104                Points:         210
 RS_GRID|   Bounds   2           -105     104                Points:         210
 RS_GRID|   Bounds   3           -315     314                Points:         630
 RS_GRID| Real space distribution over                                 32 groups
 RS_GRID| Real space distribution along direction                              3
 RS_GRID| Border size                                                         54
 RS_GRID|   Distribution                         Average         Max         Min
 RS_GRID|   Planes                                 127.7         128         127

 RS_GRID| Information for grid number                                          2
 RS_GRID|   Bounds   1            -60      59                Points:         120
 RS_GRID|   Bounds   2            -60      59                Points:         120
 RS_GRID|   Bounds   3           -180     179                Points:         360
 RS_GRID| Real space distribution over                                 32 groups
 RS_GRID| Real space distribution along direction                              3
 RS_GRID| Border size                                                         36
 RS_GRID|   Distribution                         Average         Max         Min
 RS_GRID|   Planes                                  83.2          84          83

 RS_GRID| Information for grid number                                          3
 RS_GRID|   Bounds   1            -35      34                Points:          70
 RS_GRID|   Bounds   2            -35      34                Points:          70
 RS_GRID|   Bounds   3           -105     104                Points:         210
 RS_GRID| Real space fully replicated
 RS_GRID| Group size                                                           1

 RS_GRID| Information for grid number                                          4
 RS_GRID|   Bounds   1            -20      19                Points:          40
 RS_GRID|   Bounds   2            -20      19                Points:          40
 RS_GRID|   Bounds   3            -60      59                Points:         120
 RS_GRID| Real space fully replicated
 RS_GRID| Group size                                                           1

 Number of electrons:                                                       2160
 Number of occupied orbitals:                                               1080
 Number of molecular orbitals:                                              1580

 Number of orbital functions:                                               4320
 Number of independent orbital functions:                                   4320

 Extrapolation method: initial_guess


 SCF WAVEFUNCTION OPTIMIZATION

  Step     Update method      Time    Convergence         Total energy    Change
  ------------------------------------------------------------------------------

  POISSON| IMPLICIT (GENERALIZED) SOLVER ---------------------------------------
  POISSON| Preparing Dirichlet regions ...
  POISSON| Dirichlet region    1
  POISSON|     type : axis-aligned planar
  POISSON|     applied potential :   0.0000E+00  [Eh/e]
  POISSON| Dirichlet region    2
  POISSON|     type : axis-aligned planar
  POISSON|     applied potential :   0.3675E-01  [Eh/e]
  POISSON| ... Done. 
  ------------------------------------------------------------------------------

  POISSON|   iter        pres error      nabs error        E_hartree    delta E
  POISSON|      1        0.7386E-03      0.3342E-01    1992.3880547481  0.20E+04
  POISSON|      2        0.1462E-14      0.7386E-03    1992.3915683431  0.35E-02
  POISSON| Poisson solver converged in 2 iterations.
     1 NoMix/Diag. 0.30E+00   11.0     0.24073105     -5670.6570414897 -5.67E+03
  POISSON|   iter        pres error      nabs error        E_hartree    delta E
  POISSON|      1        0.8220E-03      0.3315E-01    1992.2023618672 -0.19E+00
  POISSON|      2        0.1203E-14      0.8220E-03    1992.2062721628  0.39E-02
  POISSON| Poisson solver converged in 2 iterations.
     2 Broy./Diag. 0.30E+00   13.2     0.28934285     -5670.1666372796  4.90E-01
  POISSON|   iter        pres error      nabs error        E_hartree    delta E
  POISSON|      1        0.1686E-03      0.7249E-03    1992.3396377646  0.13E+00
  POISSON|      2        0.7759E-16      0.1686E-03    1992.3388357892 -0.80E-03
  POISSON| Poisson solver converged in 2 iterations.
     3 Broy./Diag. 0.30E+00   13.2     0.20929469     -5675.3944981046 -5.23E+00
  POISSON|   iter        pres error      nabs error        E_hartree    delta E
  POISSON|      1        0.1217E-03      0.4993E-03    1992.4098136283  0.71E-01
  POISSON|      2        0.5922E-16      0.1217E-03    1992.4103923811  0.58E-03
  POISSON| Poisson solver converged in 2 iterations.
     4 Broy./Diag. 0.30E+00   13.2     0.17864143     -5673.0248477259  2.37E+00
  POISSON|   iter        pres error      nabs error        E_hartree    delta E
  POISSON|      1        0.3730E-04      0.1512E-03    1992.5157861071  0.11E+00
  POISSON|      2        0.1157E-16      0.3730E-04    1992.5156086708 -0.18E-03
  POISSON| Poisson solver converged in 2 iterations.
     5 Broy./Diag. 0.30E+00   13.3     0.08755008     -5672.9411676947  8.37E-02
  POISSON|   iter        pres error      nabs error        E_hartree    delta E
  POISSON|      1        0.2572E-05      0.4267E-04    1992.5995266013  0.84E-01
  POISSON|      2        0.6831E-17      0.2572E-05    1992.5995388360  0.12E-04
  POISSON| Poisson solver converged in 2 iterations.
     6 Broy./Diag. 0.30E+00   13.4     0.05047108     -5672.6830158244  2.58E-01
  POISSON|   iter        pres error      nabs error        E_hartree    delta E
  POISSON|      1        0.5296E-05      0.4251E-04    1992.7375888026  0.14E+00
  POISSON|      2        0.1454E-16      0.5296E-05    1992.7376139939  0.25E-04
  POISSON| Poisson solver converged in 2 iterations.
     7 Broy./Diag. 0.30E+00   13.4     0.03922711     -5672.4025835073  2.80E-01
  POISSON|   iter        pres error      nabs error        E_hartree    delta E
  POISSON|      1        0.8263E-05      0.5278E-04    1992.8431123709  0.11E+00
  POISSON|      2        0.5976E-17      0.8263E-05    1992.8430730629 -0.39E-04
  POISSON| Poisson solver converged in 2 iterations.
     8 Broy./Diag. 0.30E+00   13.4     0.03249815     -5672.0530900994  3.49E-01
  POISSON|   iter        pres error      nabs error        E_hartree    delta E
  POISSON|      1        0.2657E-08      0.1281E-04    1992.8858338327  0.43E-01
  POISSON| Poisson solver converged in 1 iteration. 
     9 Broy./Diag. 0.30E+00   12.1     0.01276518     -5672.3956205713 -3.43E-01
  POISSON|   iter        pres error      nabs error        E_hartree    delta E
  POISSON|      1        0.4303E-06      0.7313E-05    1992.9054449708  0.20E-01
  POISSON|      2        0.2085E-17      0.4303E-06    1992.9054470177  0.20E-05
  POISSON| Poisson solver converged in 2 iterations.
    10 Broy./Diag. 0.30E+00   13.5     0.00693040     -5672.2732752173  1.22E-01
  POISSON|   iter        pres error      nabs error        E_hartree    delta E
  POISSON|      1        0.9231E-07      0.5295E-05    1992.9188063136  0.13E-01
  POISSON|      2        0.4027E-17      0.9231E-07    1992.9188067527  0.44E-06
  POISSON| Poisson solver converged in 2 iterations.
    11 Broy./Diag. 0.30E+00   13.5     0.00366229     -5672.2356470795  3.76E-02
  POISSON|   iter        pres error      nabs error        E_hartree    delta E
  POISSON|      1        0.2550E-06      0.7377E-05    1992.9325866438  0.14E-01
  POISSON|      2        0.5763E-17      0.2550E-06    1992.9325854306 -0.12E-05
  POISSON| Poisson solver converged in 2 iterations.
    12 Broy./Diag. 0.30E+00   13.5     0.00286971     -5672.2092681342  2.64E-02
  POISSON|   iter        pres error      nabs error        E_hartree    delta E
  POISSON|      1        0.4209E-06      0.4327E-05    1992.9460411446  0.13E-01
  POISSON|      2        0.4114E-17      0.4209E-06    1992.9460391425 -0.20E-05
  POISSON| Poisson solver converged in 2 iterations.
    13 Broy./Diag. 0.30E+00   13.5     0.00309385     -5672.2521338137 -4.29E-02
  POISSON|   iter        pres error      nabs error        E_hartree    delta E
  POISSON|      1        0.4105E-06      0.2869E-05    1992.9485140480  0.25E-02
  POISSON|      2        0.1227E-16      0.4105E-06    1992.9485120955 -0.20E-05
  POISSON| Poisson solver converged in 2 iterations.
    14 Broy./Diag. 0.30E+00   13.5     0.00175972     -5672.2087310292  4.34E-02
  POISSON|   iter        pres error      nabs error        E_hartree    delta E
  POISSON|      1        0.7637E-06      0.3490E-05    1992.9492790438  0.77E-03
  POISSON|      2        0.1717E-17      0.7637E-06    1992.9492826766  0.36E-05
  POISSON| Poisson solver converged in 2 iterations.
    15 Broy./Diag. 0.30E+00   13.5     0.00203232     -5672.2156413931 -6.91E-03
  POISSON|   iter        pres error      nabs error        E_hartree    delta E
  POISSON|      1        0.4800E-06      0.2291E-05    1992.9502226623  0.94E-03
  POISSON|      2        0.1060E-16      0.4800E-06    1992.9502203792 -0.23E-05
  POISSON| Poisson solver converged in 2 iterations.
    16 Broy./Diag. 0.30E+00   13.5     0.00126152     -5672.2227148555 -7.07E-03
  POISSON|   iter        pres error      nabs error        E_hartree    delta E
  POISSON|      1        0.7595E-07      0.1412E-05    1992.9507464995  0.53E-03
  POISSON|      2        0.5323E-17      0.7595E-07    1992.9507461383 -0.36E-06
  POISSON| Poisson solver converged in 2 iterations.
    17 Broy./Diag. 0.30E+00   13.5     0.00080903     -5672.2277840758 -5.07E-03
  POISSON|   iter        pres error      nabs error        E_hartree    delta E
  POISSON|      1        0.2809E-08      0.1572E-05    1992.9514695060  0.72E-03
  POISSON| Poisson solver converged in 1 iteration. 
    18 Broy./Diag. 0.30E+00   12.1     0.00043639     -5672.2284102906 -6.26E-04
  POISSON|   iter        pres error      nabs error        E_hartree    delta E
  POISSON|      1        0.1914E-06      0.2165E-05    1992.9521324620  0.66E-03
  POISSON|      2        0.1034E-16      0.1914E-06    1992.9521315515 -0.91E-06
  POISSON| Poisson solver converged in 2 iterations.
    19 Broy./Diag. 0.30E+00   13.5     0.00036962     -5672.2276334310  7.77E-04
  POISSON|   iter        pres error      nabs error        E_hartree    delta E
  POISSON|      1        0.9319E-07      0.1188E-05    1992.9527529850  0.62E-03
  POISSON|      2        0.8380E-17      0.9319E-07    1992.9527525417 -0.44E-06
  POISSON| Poisson solver converged in 2 iterations.
    20 Broy./Diag. 0.30E+00   13.4     0.00026745     -5672.2354130582 -7.78E-03
  POISSON|   iter        pres error      nabs error        E_hartree    delta E
  POISSON|      1        0.7768E-07      0.1075E-05    1992.9536502799  0.90E-03
  POISSON|      2        0.8141E-17      0.7768E-07    1992.9536499103 -0.37E-06
  POISSON| Poisson solver converged in 2 iterations.
    21 Broy./Diag. 0.30E+00   13.4     0.00024817     -5672.2364164271 -1.00E-03
  POISSON|   iter        pres error      nabs error        E_hartree    delta E
  POISSON|      1        0.6316E-07      0.8470E-06    1992.9542469858  0.60E-03
  POISSON|      2        0.1652E-17      0.6316E-07    1992.9542466853 -0.30E-06
  POISSON| Poisson solver converged in 2 iterations.
    22 Broy./Diag. 0.30E+00   13.5     0.00017936     -5672.2369929336 -5.77E-04
  POISSON|   iter        pres error      nabs error        E_hartree    delta E
  POISSON|      1        0.7924E-07      0.1160E-05    1992.9551349021  0.89E-03
  POISSON|      2        0.4947E-17      0.7924E-07    1992.9551345251 -0.38E-06
  POISSON| Poisson solver converged in 2 iterations.
    23 Broy./Diag. 0.30E+00   13.5     0.00013073     -5672.2352010783  1.79E-03
  POISSON|   iter        pres error      nabs error        E_hartree    delta E
  POISSON|      1        0.6663E-07      0.9227E-06    1992.9559646941  0.83E-03
  POISSON|      2        0.1569E-17      0.6663E-07    1992.9559643771 -0.32E-06
  POISSON| Poisson solver converged in 2 iterations.
    24 Broy./Diag. 0.30E+00   13.5     0.00011200     -5672.2381290973 -2.93E-03
  POISSON|   iter        pres error      nabs error        E_hartree    delta E
  POISSON|      1        0.1191E-06      0.7365E-06    1992.9565029552  0.54E-03
  POISSON|      2        0.3068E-17      0.1191E-06    1992.9565023887 -0.57E-06
  POISSON| Poisson solver converged in 2 iterations.
    25 Broy./Diag. 0.30E+00   13.5     0.00018303     -5672.2375631881  5.66E-04
  POISSON|   iter        pres error      nabs error        E_hartree    delta E
  POISSON|      1        0.4574E-07      0.5179E-06    1992.9568580369  0.36E-03
  POISSON|      2        0.3753E-18      0.4574E-07    1992.9568582545  0.22E-06
  POISSON| Poisson solver converged in 2 iterations.
    26 Broy./Diag. 0.30E+00   13.5     0.00021387     -5672.2373145159  2.49E-04
  POISSON|   iter        pres error      nabs error        E_hartree    delta E
  POISSON|      1        0.7270E-07      0.7481E-06    1992.9573300567  0.47E-03
  POISSON|      2        0.1151E-17      0.7270E-07    1992.9573297108 -0.35E-06
  POISSON| Poisson solver converged in 2 iterations.
    27 Broy./Diag. 0.30E+00   13.5     0.00016615     -5672.2370961004  2.18E-04
  POISSON|   iter        pres error      nabs error        E_hartree    delta E
  POISSON|      1        0.7457E-07      0.7260E-06    1992.9577108729  0.38E-03
  POISSON|      2        0.1413E-17      0.7457E-07    1992.9577105182 -0.35E-06
  POISSON| Poisson solver converged in 2 iterations.
    28 Broy./Diag. 0.30E+00   13.5     0.00008394     -5672.2379133320 -8.17E-04
  POISSON|   iter        pres error      nabs error        E_hartree    delta E
  POISSON|      1        0.4356E-07      0.7088E-06    1992.9580819282  0.37E-03
  POISSON|      2        0.5995E-17      0.4356E-07    1992.9580817209 -0.21E-06
  POISSON| Poisson solver converged in 2 iterations.
    29 Broy./Diag. 0.30E+00   13.5     0.00008323     -5672.2386552501 -7.42E-04
  POISSON|   iter        pres error      nabs error        E_hartree    delta E
  POISSON|      1        0.5436E-07      0.7190E-06    1992.9582808016  0.20E-03
  POISSON|      2        0.4637E-17      0.5436E-07    1992.9582805430 -0.26E-06
  POISSON| Poisson solver converged in 2 iterations.
    30 Broy./Diag. 0.30E+00   13.6     0.00004703     -5672.2382225046  4.33E-04
  POISSON|   iter        pres error      nabs error        E_hartree    delta E
  POISSON|      1        0.5126E-07      0.6595E-06    1992.9584188982  0.14E-03
  POISSON|      2        0.3758E-17      0.5126E-07    1992.9584186544 -0.24E-06
  POISSON| Poisson solver converged in 2 iterations.
    31 Broy./Diag. 0.30E+00   13.5     0.00006637     -5672.2390685252 -8.46E-04
  POISSON|   iter        pres error      nabs error        E_hartree    delta E
  POISSON|      1        0.6548E-07      0.8276E-06    1992.9585801670  0.16E-03
  POISSON|      2        0.3387E-17      0.6548E-07    1992.9585798555 -0.31E-06
  POISSON| Poisson solver converged in 2 iterations.
    32 Broy./Diag. 0.30E+00   13.5     0.00005226     -5672.2397362718 -6.68E-04
  POISSON|   iter        pres error      nabs error        E_hartree    delta E
  POISSON|      1        0.2898E-07      0.3350E-06    1992.9585535139 -0.26E-04
  POISSON|      2        0.6482E-18      0.2898E-07    1992.9585533760 -0.14E-06
  POISSON| Poisson solver converged in 2 iterations.
    33 Broy./Diag. 0.30E+00   13.6     0.00005097     -5672.2408056577 -1.07E-03
  POISSON|   iter        pres error      nabs error        E_hartree    delta E
  POISSON|      1        0.4013E-07      0.5184E-06    1992.9586139701  0.61E-04
  POISSON|      2        0.5901E-18      0.4013E-07    1992.9586137792 -0.19E-06
  POISSON| Poisson solver converged in 2 iterations.
    34 Broy./Diag. 0.30E+00   13.4     0.00003741     -5672.2401467103  6.59E-04
  POISSON|   iter        pres error      nabs error        E_hartree    delta E
  POISSON|      1        0.1072E-07      0.2945E-06    1992.9586865936  0.73E-04
  POISSON|      2        0.0000E+00      0.1072E-07    1992.9586865426 -0.51E-07
  POISSON| Poisson solver converged in 2 iterations.
    35 Broy./Diag. 0.30E+00   13.4     0.00003457     -5672.2409745520 -8.28E-04
  POISSON|   iter        pres error      nabs error        E_hartree    delta E
  POISSON|      1        0.3431E-07      0.1755E-06    1992.9586722684 -0.14E-04
  POISSON|      2        0.3728E-17      0.3431E-07    1992.9586721052 -0.16E-06
  POISSON| Poisson solver converged in 2 iterations.
    36 Broy./Diag. 0.30E+00   13.4     0.00005675     -5672.2412680005 -2.93E-04
  POISSON|   iter        pres error      nabs error        E_hartree    delta E
  POISSON|      1        0.1586E-07      0.2998E-06    1992.9587663988  0.94E-04
  POISSON|      2        0.1880E-17      0.1586E-07    1992.9587663234 -0.75E-07
  POISSON| Poisson solver converged in 2 iterations.
    37 Broy./Diag. 0.30E+00   13.4     0.00004838     -5672.2412301165  3.79E-05
  POISSON|   iter        pres error      nabs error        E_hartree    delta E
  POISSON|      1        0.1094E-07      0.2056E-06    1992.9588337962  0.67E-04
  POISSON|      2        0.2379E-17      0.1094E-07    1992.9588337441 -0.52E-07
  POISSON| Poisson solver converged in 2 iterations.
    38 Broy./Diag. 0.30E+00   13.5     0.00002552     -5672.2411517678  7.83E-05
  POISSON|   iter        pres error      nabs error        E_hartree    delta E
  POISSON|      1        0.2297E-07      0.2308E-06    1992.9589165470  0.83E-04
  POISSON|      2        0.7477E-18      0.2297E-07    1992.9589164378 -0.11E-06
  POISSON| Poisson solver converged in 2 iterations.
    39 Broy./Diag. 0.30E+00   13.5     0.00002523     -5672.2410877782  6.40E-05
  POISSON|   iter        pres error      nabs error        E_hartree    delta E
  POISSON|      1        0.1705E-07      0.2149E-06    1992.9590116185  0.95E-04
  POISSON|      2        0.4772E-18      0.1705E-07    1992.9590115374 -0.81E-07
  POISSON| Poisson solver converged in 2 iterations.
    40 Broy./Diag. 0.30E+00   13.4     0.00001385     -5672.2413343657 -2.47E-04
  POISSON|   iter        pres error      nabs error        E_hartree    delta E
  POISSON|      1        0.1140E-07      0.1473E-06    1992.9590746078  0.63E-04
  POISSON|      2        0.2377E-17      0.1140E-07    1992.9590745536 -0.54E-07
  POISSON| Poisson solver converged in 2 iterations.
    41 Broy./Diag. 0.30E+00   13.5     0.00001637     -5672.2411812855  1.53E-04
  POISSON|   iter        pres error      nabs error        E_hartree    delta E
  POISSON|      1        0.1225E-07      0.1620E-06    1992.9591360501  0.61E-04
  POISSON|      2        0.9612E-18      0.1225E-07    1992.9591359919 -0.58E-07
  POISSON| Poisson solver converged in 2 iterations.
    42 Broy./Diag. 0.30E+00   13.5     0.00001008     -5672.2411439973  3.73E-05
  POISSON|   iter        pres error      nabs error        E_hartree    delta E
  POISSON|      1        0.9163E-08      0.1274E-06    1992.9591708662  0.35E-04
  POISSON| Poisson solver converged in 1 iteration. 
    43 Broy./Diag. 0.30E+00   12.1     0.00001197     -5672.2411409395  3.06E-06
  POISSON|   iter        pres error      nabs error        E_hartree    delta E
  POISSON|      1        0.1035E-07      0.1324E-06    1992.9592033737  0.33E-04
  POISSON|      2        0.3770E-17      0.1035E-07    1992.9592033245 -0.49E-07
  POISSON| Poisson solver converged in 2 iterations.
    44 Broy./Diag. 0.30E+00   13.5     0.00001272     -5672.2413275799 -1.87E-04
  POISSON|   iter        pres error      nabs error        E_hartree    delta E
  POISSON|      1        0.6356E-08      0.4308E-07    1992.9592022744 -0.11E-05
  POISSON| Poisson solver converged in 1 iteration. 
    45 Broy./Diag. 0.30E+00   12.1     0.00001096     -5672.2412020754  1.26E-04
  POISSON|   iter        pres error      nabs error        E_hartree    delta E
  POISSON|      1        0.3512E-08      0.1188E-06    1992.9592120041  0.97E-05
  POISSON| Poisson solver converged in 1 iteration. 
    46 Broy./Diag. 0.30E+00   12.1     0.00001304     -5672.2412085424 -6.47E-06
  POISSON|   iter        pres error      nabs error        E_hartree    delta E
  POISSON|      1        0.9081E-08      0.8302E-07    1992.9592050213 -0.70E-05
  POISSON| Poisson solver converged in 1 iteration. 
    47 Broy./Diag. 0.30E+00   12.1     0.00001265     -5672.2412912236 -8.27E-05
  POISSON|   iter        pres error      nabs error        E_hartree    delta E
  POISSON|      1        0.7961E-08      0.9143E-07    1992.9592013013 -0.37E-05
  POISSON| Poisson solver converged in 1 iteration. 
    48 Broy./Diag. 0.30E+00   12.1     0.00000836     -5672.2413588657 -6.76E-05
  POISSON|   iter        pres error      nabs error        E_hartree    delta E
  POISSON|      1        0.2250E-08      0.6004E-07    1992.9591871166 -0.14E-04
  POISSON| Poisson solver converged in 1 iteration. 
    49 Broy./Diag. 0.30E+00   12.0     0.00000988     -5672.2413958132 -3.69E-05
  POISSON|   iter        pres error      nabs error        E_hartree    delta E
  POISSON|      1        0.9538E-08      0.1145E-06    1992.9591820732 -0.50E-05
  POISSON| Poisson solver converged in 1 iteration. 
    50 Broy./Diag. 0.30E+00   12.1     0.00000654     -5672.2413396369  5.62E-05
  POISSON|   iter        pres error      nabs error        E_hartree    delta E
  POISSON|      1        0.4054E-08      0.5361E-07    1992.9591784527 -0.36E-05
  POISSON| Poisson solver converged in 1 iteration. 
    51 Broy./Diag. 0.30E+00   12.3     0.00000439     -5672.2414360674 -9.64E-05
  POISSON|   iter        pres error      nabs error        E_hartree    delta E
  POISSON|      1        0.4868E-08      0.5897E-07    1992.9591806654  0.22E-05
  POISSON| Poisson solver converged in 1 iteration. 
    52 Broy./Diag. 0.30E+00   12.2     0.00000363     -5672.2414270572  9.01E-06
  POISSON|   iter        pres error      nabs error        E_hartree    delta E
  POISSON|      1        0.5262E-08      0.6622E-07    1992.9591892637  0.86E-05
  POISSON| Poisson solver converged in 1 iteration. 
    53 Broy./Diag. 0.30E+00   12.1     0.00000334     -5672.2414196264  7.43E-06
  POISSON|   iter        pres error      nabs error        E_hartree    delta E
  POISSON|      1        0.3279E-08      0.4153E-07    1992.9591975807  0.83E-05
  POISSON| Poisson solver converged in 1 iteration. 
    54 Broy./Diag. 0.30E+00   12.1     0.00000369     -5672.2413768294  4.28E-05
  POISSON|   iter        pres error      nabs error        E_hartree    delta E
  POISSON|      1        0.2206E-09      0.1879E-07    1992.9592035740  0.60E-05
  POISSON| Poisson solver converged in 1 iteration. 
    55 Broy./Diag. 0.30E+00   12.2     0.00000402     -5672.2414254304 -4.86E-05
  POISSON|   iter        pres error      nabs error        E_hartree    delta E
  POISSON|      1        0.4510E-08      0.3824E-07    1992.9592134029  0.98E-05
  POISSON| Poisson solver converged in 1 iteration. 
    56 Broy./Diag. 0.30E+00   12.0     0.00000457     -5672.2414069778  1.85E-05
  POISSON|   iter        pres error      nabs error        E_hartree    delta E
  POISSON|      1        0.1051E-08      0.2534E-07    1992.9592219310  0.85E-05
  POISSON| Poisson solver converged in 1 iteration. 
    57 Broy./Diag. 0.30E+00   12.1     0.00000339     -5672.2413863289  2.06E-05
  POISSON|   iter        pres error      nabs error        E_hartree    delta E
  POISSON|      1        0.1002E-08      0.1379E-07    1992.9592275181  0.56E-05
  POISSON| Poisson solver converged in 1 iteration. 
    58 Broy./Diag. 0.30E+00   12.1     0.00000265     -5672.2413798953  6.43E-06
  POISSON|   iter        pres error      nabs error        E_hartree    delta E
  POISSON|      1        0.2112E-08      0.2224E-07    1992.9592342424  0.67E-05
  POISSON| Poisson solver converged in 1 iteration. 
    59 Broy./Diag. 0.30E+00   12.1     0.00000201     -5672.2413855340 -5.64E-06
  POISSON|   iter        pres error      nabs error        E_hartree    delta E
  POISSON|      1        0.9116E-09      0.1637E-07    1992.9592386767  0.44E-05
  POISSON| Poisson solver converged in 1 iteration. 
    60 Broy./Diag. 0.30E+00   12.2     0.00000165     -5672.2414014971 -1.60E-05
  POISSON|   iter        pres error      nabs error        E_hartree    delta E
  POISSON|      1        0.1083E-08      0.1424E-07    1992.9592412267  0.25E-05
  POISSON| Poisson solver converged in 1 iteration. 
    61 Broy./Diag. 0.30E+00   12.1     0.00000090     -5672.2413871542  1.43E-05

  *** SCF run converged in    61 steps ***


  Electronic density on regular grids:      -2159.9999999992        0.0000000008
  Core density on regular grids:             2159.9999999995       -0.0000000005
  Total charge density on r-space grids:        0.0000000003
  Total charge density g-space grids:           0.0000000003

  Overlap energy of the core charge distribution:               0.00003325397047
  Self energy of the core charge distribution:              -9891.63555570741482
  Core Hamiltonian energy:                                   3202.27881590059678
  Hartree energy:                                            1992.95924122672250
  Electric enthalpy:                                         1992.95224138721278
  Exchange-correlation energy:                               -971.10900775425489
  Dispersion energy:                                           -4.69568485044425
  Electronic entropic energy:                                  -0.03222934492853
  Fermi energy:                                                -0.22631233041130

  Total energy:                                             -5672.24138715416211

 The electron density is written in cube file format to the file:

 cp2k-ELECTRON_DENSITY-1_0.cube

 !-----------------------------------------------------------------------------!
                     Mulliken Population Analysis

 #  Atom  Element  Kind  Atomic population                           Net charge
       1     Pt       1         10.042764                             -0.042764
       2     Pt       1         10.029388                             -0.029388
       3     Pt       1         10.057525                             -0.057525
       4     Pt       1         10.044792                             -0.044792
       5     Pt       1         10.017873                             -0.017873
       6     Pt       1         10.057504                             -0.057504
       7     Pt       1         10.062929                             -0.062929
       8     Pt       1         10.020773                             -0.020773
       9     Pt       1         10.068635                             -0.068635
      10     Pt       1         10.033571                             -0.033571
      11     Pt       1         10.035039                             -0.035039
      12     Pt       1         10.071799                             -0.071799
      13     Pt       1         10.042090                             -0.042090
[...]
    191      1      Pt         -0.00294766    -0.00406023     0.00678853
    192      1      Pt         -0.00447359    -0.00295408    -0.00460800
    193      1      Pt         -0.01083889     0.00804812    -0.01383050
    194      1      Pt          0.00129519    -0.02084936    -0.00837200
    195      1      Pt          0.00176295    -0.00683893     0.00137806
    196      1      Pt          0.00344820     0.01909578    -0.00998183
    197      1      Pt         -0.00284949     0.01084809     0.00848350
    198      1      Pt          0.01096609     0.00485163    -0.00684298
    199      1      Pt          0.00661582     0.00145786    -0.00818622
    200      1      Pt          0.00690201     0.00553285     0.00026610
    201      1      Pt          0.01113196     0.01396572    -0.00109477
    202      1      Pt         -0.01974422     0.00132634    -0.01186726
    203      1      Pt          0.01035759     0.00351556    -0.01021888
    204      1      Pt         -0.02215863    -0.01639706     0.00398473
    205      1      Pt          0.00778115     0.01034248     0.00654820
    206      1      Pt          0.01227531     0.00698639    -0.00530638
    207      1      Pt         -0.01458080    -0.01764943    -0.00162295
    208      1      Pt          0.01763666    -0.00393906     0.01862773
    209      1      Pt          0.01075431     0.00287750    -0.01366105
    210      1      Pt          0.00113052     0.02171644     0.00521638
    211      1      Pt          0.00981911    -0.01477068     0.01094668
    212      1      Pt         -0.00878909     0.00690013    -0.00124188
    213      1      Pt         -0.00000046     0.00519991     0.01273166
    214      1      Pt         -0.00223575    -0.01250452    -0.01053656
    215      1      Pt         -0.00537634    -0.00129389     0.00724359
    216      1      Pt          0.01286397    -0.02405787     0.00059729
 SUM OF ATOMIC FORCES          -0.00002241    -0.00001512     0.00000163     0.00002708

 -------------------------------------------------------------------------------
 -                                                                             -
 -                                DBCSR STATISTICS                             -
 -                                                                             -
 -------------------------------------------------------------------------------
 COUNTER                                    TOTAL       BLAS       SMM       ACC
 flops    20 x    12 x    20            447897600       0.0%    100.0%      0.0%
 flops    20 x    32 x    20          58525286400       0.0%    100.0%      0.0%
 flops    20 x    20 x   204         240959577600       0.0%    100.0%      0.0%
 flops    20 x    20 x   224         264583065600       0.0%    100.0%      0.0%
 flops    20 x    20 x   192        1360712908800       0.0%    100.0%      0.0%
 flops inhomo. stacks                           0       0.0%      0.0%      0.0%
 flops total                         1.925229E+12       0.0%    100.0%      0.0%
 flops max/rank                     61.786829E+09       0.0%    100.0%      0.0%
 matmuls inhomo. stacks                         0       0.0%      0.0%      0.0%
 matmuls total                           14144544       0.0%    100.0%      0.0%
 number of processed stacks                 18560       0.0%    100.0%      0.0%
 average stack size                                     0.0     762.1       0.0
 marketing flops                     2.739976E+12
 -------------------------------------------------------------------------------
 # multiplications                             64
 max memory usage/rank               1.853424E+09
 # max total images/rank                        2
 # max 3D layers                                1
 # MPI messages exchanged                   26624
 MPI messages size (bytes):
  total size                        35.609932E+09
  min size                         829.440000E+03
  max size                           4.665600E+06
  average size                       1.337512E+06
 MPI breakdown and total messages size (bytes):
             size <=      128                   0                        0
       128 < size <=     8192                   0                        0
      8192 < size <=    32768                   0                        0
     32768 < size <=   131072                   0                        0
    131072 < size <=  4194304               26400              34564838400
   4194304 < size <= 16777216                 224               1045094400
  16777216 < size                               0                        0
 -------------------------------------------------------------------------------

 *** WARNING in dbcsr_mm.F:290 :: Using a non-square number of MPI ranks ***
 *** might lead to poor performance. Used ranks: 32 Suggested: 36 64     ***

 -------------------------------------------------------------------------------
 -                                                                             -
 -                      DBCSR MESSAGE PASSING PERFORMANCE                      -
 -                                                                             -
 -------------------------------------------------------------------------------
 ROUTINE             CALLS      AVE VOLUME [Bytes]
 MP_Bcast                6                     12.
 MP_Allreduce          471                      9.
 MP_Alltoall          1773                1274992.
 MP_ISend             2048                 578838.
 MP_IRecv             2048                 561858.
 -------------------------------------------------------------------------------

 -------------------------------------------------------------------------------
 -                                                                             -
 -                                DBM STATISTICS                               -
 -                                                                             -
 -------------------------------------------------------------------------------
    M  x    N  x    K                                          COUNT     PERCENT
 -------------------------------------------------------------------------------

 -------------------------------------------------------------------------------
 -                                                                             -
 -                                GRID STATISTICS                              -
 -                                                                             -
 -------------------------------------------------------------------------------
 LP    KERNEL             BACKEND                              COUNT     PERCENT
 4     collocate general  REF                               21124888      49.97%
 4     integrate general  REF                               20784164      49.16%
 5     integrate general  REF                                 340724       0.81%
 0     collocate general  REF                                  13824       0.03%
 0     integrate general  REF                                   6912       0.02%
 1     integrate general  REF                                   6912       0.02%
 -------------------------------------------------------------------------------

 MEMORY| Estimated peak process memory [MiB]                                2145

 -------------------------------------------------------------------------------
 ----                             MULTIGRID INFO                            ----
 -------------------------------------------------------------------------------
 count for grid        1:          17561          cutoff [a.u.]          200.00
 count for grid        2:         177728          cutoff [a.u.]           66.67
 count for grid        3:         110127          cutoff [a.u.]           22.22
 count for grid        4:         154922          cutoff [a.u.]            7.41
 total gridlevel count  :         460338

 -------------------------------------------------------------------------------
 -                                                                             -
 -                         MESSAGE PASSING PERFORMANCE                         -
 -                                                                             -
 -------------------------------------------------------------------------------

 ROUTINE             CALLS      AVE VOLUME [Bytes]
 MP_Group                4
 MP_Bcast             1766                 164901.
 MP_Allreduce         1662                   1521.
 MP_Sync                67
 MP_Alltoall          3167               49711996.
 MP_SendRecv           124                  14904.
 MP_ISendRecv         7688                 214800.
 MP_Wait             18644
 MP_comm_split           1
 MP_ISend             9824                 715239.
 MP_IRecv             9824                 715239.
 MP_Recv               192                1105920.
 MP_Write_All            3                4213860.
 -------------------------------------------------------------------------------


 -------------------------------------------------------------------------------
 -                                                                             -
 -                           R E F E R E N C E S                               -
 -                                                                             -
 -------------------------------------------------------------------------------
 
 CP2K version 2022.1, the CP2K developers group (2022).
 CP2K is freely available from https://www.cp2k.org/ .

 Kuehne,Thomas D.; Iannuzzi,Marcella; Del Ben,Mauro;
 Rybkin,Vladimir V.; Seewald,Patrick; Stein,Frederick; Laino,Teodoro;
 Khaliullin,Rustam Z.; Schuett,Ole; Schiffmann,Florian; Golze,Dorothea;
 Wilhelm,Jan; Chulkov,Sergey; Bani-Hashemian,Mohammad Hossein;
 Weber,Valery; Borstnik,Urban; Taillefumier,Mathieu;
 Jakobovits,Alice Shoshana; Lazzaro,Alfio; Pabst,Hans; Mueller,Tiziano;
 Schade,Robert; Guidon,Manuel; Andermatt,Samuel; Holmberg,Nico;
 Schenter,Gregory K.; Hehn,Anna; Bussy,Augustin; Belleflamme,Fabian;
 Tabacchi,Gloria; Gloess,Andreas; Lass,Michael; Bethune,Iain;
 Mundy,Christopher J.; Plessl,Christian; Watkins,Matt;
 VandeVondele,Joost; Krack,Matthias; Hutter,Juerg. 
 The Journal of Chemical Physics, 152 (19), (2020). 
 CP2K: An electronic structure and molecular dynamics software package -
 Quickstep: Efficient and accurate electronic structure calculations.
 https://doi.org/10.1063/5.0007045

 Goerigk, Lars; Hansen, Andreas; Bauer, Christoph; Ehrlich, Stephan;
 Najibi, Asim; Grimme, Stefan. , 19 (48), (2017). 
 A look at the density functional theory zoo with the advanced GMTKN55 database
 for general main group thermochemistry, kinetics and noncovalent interactions.
 https://doi.org/10.1039/C7CP04913G

 Bani-Hashemian, MH; Bruck, S; Luisier, M; VandeVondele, J. 
 JOURNAL OF CHEMICAL PHYSICS, 144 (4), 044113 (2016). 
 A generalized Poisson solver for first-principles device simulations.
 https://doi.org/10.1063/1.4940796

 Schuett, Ole; Messmer, Peter; Hutter, Juerg; VandeVondele, Joost. 
 Electronic Structure Calculations on Graphics Processing Units, John
 Wiley & Sons, Ltd, 173-190 (2016). 
 GPU-Accelerated Sparse Matrix-Matrix Multiplication for
 Linear Scaling Density Functional Theory.
 https://doi.org/10.1002/9781118670712.ch8

 Heinecke, A; Henry, G; Hutchinson, M; Pabst, H. 
 Proceedings of Intl. Supercomputing Conference, 981-991 (2016). 
 LIBXSMM: Accelerating Small Matrix Multiplications
 by Runtime Code Generation.
 https://doi.org/10.1109/SC.2016.83

 Borstnik, U; VandeVondele, J; Weber, V; Hutter, J. 
 PARALLEL COMPUTING, 40 (5-6), 47-58 (2014). 
 Sparse matrix multiplication: The distributed block-compressed sparse
 row library.
 https://doi.org/10.1016/j.parco.2014.03.012

 Hutter, J; Iannuzzi, M; Schiffmann, F; VandeVondele, J. 
 WIREs Comput Mol Sci., 4 (1), 15-25 (2014). 
 CP2K: atomistic simulations of condensed matter systems.
 https://doi.org/10.1002/wcms.1159

 Marek, A; Blum, V; Johanni, R; Havu, V; Lang, B; Auckenthaler, T;
 Heinecke, A; Bungartz, H; Lederer, H. 
 Journal of Physics: Condensed Matter, 26 (21), (2014). 
 The ELPA library: scalable parallel eigenvalue solutions for
 electronic structure
 theory and computational science.
 https://doi.org/10.1088/0953-8984/26/21/213201

 Grimme, S; Ehrlich, S; Goerigk, L. 
 JOURNAL OF COMPUTATIONAL CHEMISTRY, 32, 1456 (2011). 
 Effect of the damping function in dispersion corrected density functional theory.
 https://doi.org/10.1002/jcc.21759

 Grimme, S; Antony, J; Ehrlich, S; Krieg, H. 
 JOURNAL OF CHEMICAL PHYSICS, 132 (15), 154104 (2010). 
 A consistent and accurate ab initio parametrization of density
 functional dispersion correction (DFT-D) for the 94 elements H-Pu.
 https://doi.org/10.1063/1.3382344

 VandeVondele, J; Hutter, J. 
 JOURNAL OF CHEMICAL PHYSICS, 127 (11), 114105 (2007). 
 Gaussian basis sets for accurate calculations on molecular systems in
 gas and condensed phases.
 https://doi.org/10.1063/1.2770708

 Krack, M. 
 THEORETICAL CHEMISTRY ACCOUNTS, 114 (1-3), 145-152 (2005). 
 Pseudopotentials for H to Kr optimized for gradient-corrected
 exchange-correlation functionals.
 https://doi.org/10.1007/s00214-005-0655-y

 VandeVondele, J; Krack, M; Mohamed, F; Parrinello, M; Chassaing, T;
 Hutter, J. COMPUTER PHYSICS COMMUNICATIONS, 167 (2), 103-128 (2005). 
 QUICKSTEP: Fast and accurate density functional calculations using a
 mixed Gaussian and plane waves approach.
 https://doi.org/10.1016/j.cpc.2004.12.014

 Frigo, M; Johnson, SG. 
 PROCEEDINGS OF THE IEEE, 93 (2), 216-231 (2005). 
 The design and implementation of FFTW3.
 https://doi.org/10.1109/JPROC.2004.840301

 Hartwigsen, C; Goedecker, S; Hutter, J. 
 PHYSICAL REVIEW B, 58 (7), 3641-3662 (1998). 
 Relativistic separable dual-space Gaussian pseudopotentials from H to Rn.
 https://doi.org/10.1103/PhysRevB.58.3641

 Lippert, G; Hutter, J; Parrinello, M. 
 MOLECULAR PHYSICS, 92 (3), 477-487 (1997). 
 A hybrid Gaussian and plane wave density functional scheme.
 https://doi.org/10.1080/002689797170220

 Perdew, JP; Burke, K; Ernzerhof, M. 
 PHYSICAL REVIEW LETTERS, 77 (18), 3865-3868 (1996). 
 Generalized gradient approximation made simple.
 https://doi.org/10.1103/PhysRevLett.77.3865

 Goedecker, S; Teter, M; Hutter, J. 
 PHYSICAL REVIEW B, 54 (3), 1703-1710 (1996). 
 Separable dual-space Gaussian pseudopotentials.
 https://doi.org/10.1103/PhysRevB.54.1703


 -------------------------------------------------------------------------------
 -                                                                             -
 -                                T I M I N G                                  -
 -                                                                             -
 -------------------------------------------------------------------------------
 SUBROUTINE                       CALLS  ASD         SELF TIME        TOTAL TIME
                                MAXIMUM       AVERAGE  MAXIMUM  AVERAGE  MAXIMUM
 CP2K                                 1  1.0    0.019    0.040  819.343  819.345
 qs_forces                            1  2.0    0.001    0.001  818.904  818.905
 qs_energies                          1  3.0    0.000    0.000  804.716  804.718
 scf_env_do_scf                       1  4.0    0.000    0.000  794.944  795.049
 scf_env_do_scf_inner_loop           61  5.0    0.003    0.005  794.942  795.046
 rebuild_ks_matrix                   62  7.0    0.000    0.000  515.055  515.083
 qs_ks_build_kohn_sham_matrix        62  8.0    0.010    0.011  515.055  515.083
 qs_ks_update_qs_env                 61  6.0    0.001    0.001  505.286  505.314
 pw_transfer                       3028 12.2    0.232    0.301  293.784  296.530
 fft_wrap_pw1pw2                   3028 13.2    0.033    0.039  293.552  296.229
 fft_wrap_pw1pw2_200               2656 14.4   24.972   28.447  290.815  293.246
 pw_poisson_solve                    62  9.0    0.019    0.025  257.339  257.421
 implicit_poisson_solver_mixed_      62 10.0    6.943    7.477  243.122  243.255
 fft3d_ps                          3028 15.2  124.582  134.277  218.415  222.045
 qs_rho_update_rho_low               62  6.0    0.001    0.001  187.233  187.250
 calculate_rho_elec                  62  7.0    0.339    0.374  187.233  187.249
 sum_up_and_integrate                62  9.0    0.966    1.050  176.008  176.043
 integrate_v_rspace                  62 10.0    0.002    0.002  175.042  175.140
 derive_fft                         332 12.1    0.024    0.028  171.752  172.994
 grid_collocate_task_list            62  8.0   83.242  161.589   83.242  161.589
 grid_integrate_task_list            62 11.0   76.912  149.926   76.912  149.926
 apply_P_operator                   270 11.2    2.519    2.871  142.360  143.392
 rs_pw_transfer                     500 10.5    0.006    0.006  103.362  129.261
 density_rs2pw                       62  8.0    0.004    0.005  102.308  128.200
 mp_waitany                        9824 12.4   86.089  112.814   86.089  112.814
 rs_pw_transfer_RS2PW_200            64 10.0    3.575    4.188   84.495  110.391
 mp_alltoall_d11v                   884 10.3   75.353   99.490   75.353   99.490
 rs_gather_matrices                  62 11.0    0.240    0.269   74.211   98.435
 qs_scf_new_mos                      61  6.0    0.001    0.001   75.935   76.000
 qs_vxc_create                       62  9.0    0.002    0.003   73.507   74.384
 xc_vxc_pw_create                    62 10.0    1.620    2.034   73.505   74.382
 x_to_yz                           1907 16.3   41.733   47.296   64.590   68.686
 eigensolver                         61  7.0    0.005    0.009   68.559   68.661
 mp_alltoall_z22v                  3028 17.2   40.339   62.872   40.339   62.872
 xc_pw_derive                       372 12.0    0.006    0.008   49.758   52.543
 apply_poisson_operator_fft          62 11.0    0.001    0.001   46.954   47.207
 cp_fm_diag_elpa                     62  8.0    0.001    0.001   43.533   43.629
 cp_fm_diag_elpa_base                62  9.0   42.614   42.718   43.432   43.492
 yz_to_x                           1121 15.9   11.690   12.403   29.171   41.314
 xc_rho_set_and_dset_create          62 11.0    0.704    0.852   38.142   40.389
 apply_inv_laplace_operator_fft     168 11.6    1.367    1.454   37.133   38.306
 pw_scatter_p                      1907 15.3   32.563   35.928   32.563   35.928
 xc_pw_divergence                    62 11.0    0.003    0.004   32.787   34.606
 ps_implicit_compute_veps            62 11.0    0.749    0.891   32.666   33.367
 gspace_mixing                       60  6.0    0.328    0.350   29.030   29.030
 ps_implicit_compute_error_fft      104 10.9    1.934    2.062   25.604   27.446
 pw_derive                         1368 13.1   26.071   27.431   26.071   27.431
 cp_fm_triangular_multiply          183  8.0   24.292   24.547   24.292   24.547
 potential_pw2rs                     62 11.0    0.050    0.057   23.906   24.005
 broyden_mixing                      60  7.0   21.215   21.501   21.752   21.816
 pw_gather_p                       1121 14.9   17.290   18.110   17.290   18.110
 -------------------------------------------------------------------------------

 The number of warnings for this run is : 1
 
 -------------------------------------------------------------------------------
  **** **** ******  **  PROGRAM ENDED AT                 2023-12-03 04:52:21.006
 ***** ** ***  *** **   PROGRAM RAN ON                                     cu042
 **    ****   ******    PROGRAM RAN BY                                     jxzhu
 ***** **    ** ** **   PROGRAM PROCESS ID                                 30224
  **** **  *******  **  PROGRAM STOPPED IN /public/home/jxzhu/tmp_calc/04c0855f9
                                           8753fac23fde4df51ba20f3741a9e9a/calc/
                                           task.002.000018
