 DBCSR| CPU Multiplication driver                                           XSMM
 DBCSR| Multrec recursion limit                                              512
 DBCSR| Multiplication stack size                                           1000
 DBCSR| Maximum elements for images                                    UNLIMITED
 DBCSR| Multiplicative factor virtual images                                   1
 DBCSR| Use multiplication densification                                       T
 DBCSR| Multiplication size stacks                                             3
 DBCSR| Use memory pool for CPU allocation                                     F
 DBCSR| Number of 3D layers                                               SINGLE
 DBCSR| Use MPI memory allocation                                              F
 DBCSR| Use RMA algorithm                                                      F
 DBCSR| Use Communication thread                                               T
 DBCSR| Communication thread load                                             87
 DBCSR| MPI: My node id                                                        0
 DBCSR| MPI: Number of nodes                                                  64
 DBCSR| OMP: Current number of threads                                         1
 DBCSR| OMP: Max number of threads                                             1
 DBCSR| Split modifier for TAS multiplication algorithm                  1.0E+00


  **** **** ******  **  PROGRAM STARTED AT               2023-11-26 21:16:28.375
 ***** ** ***  *** **   PROGRAM STARTED ON                                 cu054
 **    ****   ******    PROGRAM STARTED BY                                 jxzhu
 ***** **    ** ** **   PROGRAM PROCESS ID                                 20431
  **** **  *******  **  PROGRAM STARTED IN /public/home/jxzhu/tmp_calc/af2075565
                                           805657d94fa4669dad6f4b174b0a4fb/calc/
                                           001500.000/pbc

 CP2K| version string:                                       CP2K version 2022.1
 CP2K| source code revision number:                                  git:2caeb6f
 CP2K| cp2kflags: omp libint fftw3 libxc elpa parallel mpi3 scalapack cosma xsmm
 CP2K|             plumed2 spglib mkl sirius libvori libbqb
 CP2K| is freely available from                            https://www.cp2k.org/
 CP2K| Program compiled at                           Mon Jul 3 17:37:06 CST 2023
 CP2K| Program compiled on                                                 mu003
 CP2K| Program compiled for                                                local
 CP2K| Data directory path                             /public/home/jxzhu/basis/
 CP2K| Input file name                                                 input.inp
 
 GLOBAL| Force Environment number                                              1
 GLOBAL| Basis set file name                                        BASIS_MOLOPT
 GLOBAL| Potential file name                                      GTH_POTENTIALS
 GLOBAL| MM Potential file name                                     MM_POTENTIAL
 GLOBAL| Coordinate file name                                          coord.xyz
 GLOBAL| Method name                                                        CP2K
 GLOBAL| Project name                                                       cp2k
 GLOBAL| Run type                                                   ENERGY_FORCE
 GLOBAL| FFT library                                                       FFTW3
 GLOBAL| Diagonalization library                                            ELPA
 GLOBAL| Minimum number of eigenvectors for ELPA usage                        16
 GLOBAL| Orthonormality check for eigenvectors                          DISABLED
 GLOBAL| Matrix multiplication library                                     COSMA
 GLOBAL| All-to-all communication in single precision                          F
 GLOBAL| FFTs using library dependent lengths                                  F
 GLOBAL| Grid backend                                                       AUTO
 GLOBAL| Global print level                                               MEDIUM
 GLOBAL| MPI I/O enabled                                                       T
 GLOBAL| Total number of message passing processes                            64
 GLOBAL| Number of threads for this process                                    1
 GLOBAL| This output is from process                                           0
 GLOBAL| Stack size for threads created by OpenMP (OMP_STACKSIZE)        default
 GLOBAL| CPU model name                 Intel(R) Xeon(R) Gold 6338 CPU @ 2.00GHz
 GLOBAL| CPUID                                                              1003

 MEMORY| system memory details [Kb]
 MEMORY|                        rank 0           min           max       average
 MEMORY| MemTotal            263619172     263619172     263619172     263619172
 MEMORY| MemFree             210400760     210400140     210401132     210400451
 MEMORY| Buffers                  3320          3320          3320          3320
 MEMORY| Cached                4303700       4303700       4303700       4303700
 MEMORY| Slab                  1816120       1816120       1816120       1816120
 MEMORY| SReclaimable           243572        243572        243572        243572
 MEMORY| MemLikelyFree       214951352     214950732     214951724     214951043


 *** Fundamental physical constants (SI units) ***

 *** Literature: B. J. Mohr and B. N. Taylor,
 ***             CODATA recommended values of the fundamental physical
 ***             constants: 2006, Web Version 5.1
 ***             http://physics.nist.gov/constants

 Speed of light in vacuum [m/s]                             2.99792458000000E+08
 Magnetic constant or permeability of vacuum [N/A**2]       1.25663706143592E-06
 Electric constant or permittivity of vacuum [F/m]          8.85418781762039E-12
 Planck constant (h) [J*s]                                  6.62606896000000E-34
 Planck constant (h-bar) [J*s]                              1.05457162825177E-34
 Elementary charge [C]                                      1.60217648700000E-19
 Electron mass [kg]                                         9.10938215000000E-31
 Electron g factor [ ]                                     -2.00231930436220E+00
 Proton mass [kg]                                           1.67262163700000E-27
 Fine-structure constant                                    7.29735253760000E-03
 Rydberg constant [1/m]                                     1.09737315685270E+07
 Avogadro constant [1/mol]                                  6.02214179000000E+23
 Boltzmann constant [J/K]                                   1.38065040000000E-23
 Atomic mass unit [kg]                                      1.66053878200000E-27
 Bohr radius [m]                                            5.29177208590000E-11

 *** Conversion factors ***

 [u] -> [a.u.]                                              1.82288848426455E+03
 [Angstrom] -> [Bohr] = [a.u.]                              1.88972613288564E+00
 [a.u.] = [Bohr] -> [Angstrom]                              5.29177208590000E-01
 [a.u.] -> [s]                                              2.41888432650478E-17
 [a.u.] -> [fs]                                             2.41888432650478E-02
 [a.u.] -> [J]                                              4.35974393937059E-18
 [a.u.] -> [N]                                              8.23872205491840E-08
 [a.u.] -> [K]                                              3.15774647902944E+05
 [a.u.] -> [kJ/mol]                                         2.62549961709828E+03
 [a.u.] -> [kcal/mol]                                       6.27509468713739E+02
 [a.u.] -> [Pa]                                             2.94210107994716E+13
 [a.u.] -> [bar]                                            2.94210107994716E+08
 [a.u.] -> [atm]                                            2.90362800883016E+08
 [a.u.] -> [eV]                                             2.72113838565563E+01
 [a.u.] -> [Hz]                                             6.57968392072181E+15
 [a.u.] -> [1/cm] (wave numbers)                            2.19474631370540E+05
 [a.u./Bohr**2] -> [1/cm]                                   5.14048714338585E+03
 

 CELL_TOP| Volume [angstrom^3]:                                     10221.806009
 CELL_TOP| Vector a [angstrom    16.869     0.000     0.000   |a| =    16.869000
 CELL_TOP| Vector b [angstrom    -8.434    14.609     0.000   |b| =    16.869015
 CELL_TOP| Vector c [angstrom     0.000     0.000    41.478   |c| =    41.478000
 CELL_TOP| Angle (b,c), alpha [degree]:                                90.000000
 CELL_TOP| Angle (a,c), beta  [degree]:                                90.000000
 CELL_TOP| Angle (a,b), gamma [degree]:                               119.999970
 CELL_TOP| Numerically orthorhombic:                                          NO
 
 GENERATE|  Preliminary Number of Bonds generated:                             0
 GENERATE|  Achieved consistency in connectivity generation.

 CELL| Volume [angstrom^3]:                                         10221.806009
 CELL| Vector a [angstrom]:      16.869     0.000     0.000   |a| =    16.869000
 CELL| Vector b [angstrom]:      -8.434    14.609     0.000   |b| =    16.869015
 CELL| Vector c [angstrom]:       0.000     0.000    41.478   |c| =    41.478000
 CELL| Angle (b,c), alpha [degree]:                                    90.000000
 CELL| Angle (a,c), beta  [degree]:                                    90.000000
 CELL| Angle (a,b), gamma [degree]:                                   119.999970
 CELL| Numerically orthorhombic:                                              NO

 CELL_REF| Volume [angstrom^3]:                                     10221.806009
 CELL_REF| Vector a [angstrom    16.869     0.000     0.000   |a| =    16.869000
 CELL_REF| Vector b [angstrom    -8.434    14.609     0.000   |b| =    16.869015
 CELL_REF| Vector c [angstrom     0.000     0.000    41.478   |c| =    41.478000
 CELL_REF| Angle (b,c), alpha [degree]:                                90.000000
 CELL_REF| Angle (a,c), beta  [degree]:                                90.000000
 CELL_REF| Angle (a,b), gamma [degree]:                               119.999970
 CELL_REF| Numerically orthorhombic:                                          NO

 *******************************************************************************
 *******************************************************************************
 **                                                                           **
 **     #####                         ##              ##                      **
 **    ##   ##            ##          ##              ##                      **
 **   ##     ##                       ##            ######                    **
 **   ##     ##  ##   ##  ##   #####  ##  ##   ####   ##    #####    #####    **
 **   ##     ##  ##   ##  ##  ##      ## ##   ##      ##   ##   ##  ##   ##   **
 **   ##  ## ##  ##   ##  ##  ##      ####     ###    ##   ######   ######    **
 **    ##  ###   ##   ##  ##  ##      ## ##      ##   ##   ##       ##        **
 **     #######   #####   ##   #####  ##  ##  ####    ##    #####   ##        **
 **           ##                                                    ##        **
 **                                                                           **
 **                                                ... make the atoms dance   **
 **                                                                           **
 **            Copyright (C) by CP2K developers group (2000-2022)             **
 **                      J. Chem. Phys. 152, 194103 (2020)                    **
 **                                                                           **
 *******************************************************************************

 DFT| Spin restricted Kohn-Sham (RKS) calculation                            RKS
 DFT| Multiplicity                                                             1
 DFT| Number of spin states                                                    1
 DFT| Charge                                                                   0
 DFT| Self-interaction correction (SIC)                                       NO
 DFT| Cutoffs: density                                              1.000000E-10
 DFT|          gradient                                             1.000000E-10
 DFT|          tau                                                  1.000000E-10
 DFT|          cutoff_smoothing_range                               0.000000E+00
 DFT| XC density smoothing                                                  NONE
 DFT| XC derivatives                                                          PW

 FUNCTIONAL| PBE:
 FUNCTIONAL| J.P.Perdew, K.Burke, M.Ernzerhof, Phys. Rev. Letter, vol. 77, n 18,
 FUNCTIONAL|  pp. 3865-3868, (1996){spin unpolarized}                           

 vdW POTENTIAL|                                                   Pair Potential
 vdW POTENTIAL|          DFT-D3 (Version 3.1)
 vdW POTENTIAL|          Potential Form: S. Grimme et al, JCP 132: 154104 (2010)
 vdW POTENTIAL|          Zero Damping
 vdW POTENTIAL|          Cutoff Radius [Bohr]:                             20.00
 vdW POTENTIAL|          s6 Scaling Factor:                               1.0000
 vdW POTENTIAL|          sr6 Scaling Factor:                              1.2170
 vdW POTENTIAL|          s8 Scaling Factor:                               0.7220
 vdW POTENTIAL|          Cutoff for CN calculation:                   0.1000E-05

 QS| Method:                                                                 GPW
 QS| Density plane wave grid type                        NON-SPHERICAL FULLSPACE
 QS| Number of grid levels:                                                    4
 QS| Density cutoff [a.u.]:                                                200.0
 QS| Multi grid cutoff [a.u.]: 1) grid level                               200.0
 QS|                           2) grid level                                66.7
 QS|                           3) grid level                                22.2
 QS|                           4) grid level                                 7.4
 QS| Grid level progression factor:                                          3.0
 QS| Relative density cutoff [a.u.]:                                        20.0
 QS| Interaction thresholds: eps_pgf_orb:                                3.2E-07
 QS|                         eps_filter_matrix:                          0.0E+00
 QS|                         eps_core_charge:                            1.0E-15
 QS|                         eps_rho_gspace:                             1.0E-13
 QS|                         eps_rho_rspace:                             1.0E-13
 QS|                         eps_gvg_rspace:                             3.2E-07
 QS|                         eps_ppl:                                    1.0E-02
 QS|                         eps_ppnl:                                   3.2E-09


 ATOMIC KIND INFORMATION

  1. Atomic kind: O                                     Number of atoms:     230

     Orbital Basis Set                                        DZVP-MOLOPT-SR-GTH

       Number of orbital shell sets:                                           1
       Number of orbital shells:                                               5
       Number of primitive Cartesian functions:                                5
       Number of Cartesian basis functions:                                   14
       Number of spherical basis functions:                                   13
       Norm type:                                                              2

       Normalised Cartesian orbitals:

                        Set   Shell   Orbital            Exponent    Coefficient

                          1       1    2s               10.389228       0.396646
                                                         3.849621       0.208811
                                                         1.388401      -0.301641
                                                         0.496955      -0.274061
                                                         0.162492      -0.033677

                          1       2    3s               10.389228       0.303673
                                                         3.849621       0.240943
                                                         1.388401      -0.313066
                                                         0.496955      -0.043055
                                                         0.162492       0.213991

                          1       3    3px              10.389228      -1.530415
                                                         3.849621      -1.371928
                                                         1.388401      -0.761951
                                                         0.496955      -0.253695
                                                         0.162492      -0.035541
                          1       3    3py              10.389228      -1.530415
                                                         3.849621      -1.371928
                                                         1.388401      -0.761951
                                                         0.496955      -0.253695
                                                         0.162492      -0.035541
                          1       3    3pz              10.389228      -1.530415
                                                         3.849621      -1.371928
                                                         1.388401      -0.761951
                                                         0.496955      -0.253695
                                                         0.162492      -0.035541

                          1       4    4px              10.389228      -0.565392
                                                         3.849621      -0.038231
                                                         1.388401      -0.382373
                                                         0.496955       0.179070
                                                         0.162492       0.122714
                          1       4    4py              10.389228      -0.565392
                                                         3.849621      -0.038231
                                                         1.388401      -0.382373
                                                         0.496955       0.179070
                                                         0.162492       0.122714
                          1       4    4pz              10.389228      -0.565392
                                                         3.849621      -0.038231
                                                         1.388401      -0.382373
                                                         0.496955       0.179070
                                                         0.162492       0.122714

                          1       5    4dx2             10.389228       1.867377
                                                         3.849621       0.670994
                                                         1.388401       1.353441
                                                         0.496955       0.273538
                                                         0.162492       0.006620
                          1       5    4dxy             10.389228       3.234392
                                                         3.849621       1.162195
                                                         1.388401       2.344229
                                                         0.496955       0.473781
                                                         0.162492       0.011466
                          1       5    4dxz             10.389228       3.234392
                                                         3.849621       1.162195
                                                         1.388401       2.344229
                                                         0.496955       0.473781
                                                         0.162492       0.011466
                          1       5    4dy2             10.389228       1.867377
                                                         3.849621       0.670994
                                                         1.388401       1.353441
                                                         0.496955       0.273538
                                                         0.162492       0.006620
                          1       5    4dyz             10.389228       3.234392
                                                         3.849621       1.162195
                                                         1.388401       2.344229
                                                         0.496955       0.473781
                                                         0.162492       0.011466
                          1       5    4dz2             10.389228       1.867377
                                                         3.849621       0.670994
                                                         1.388401       1.353441
                                                         0.496955       0.273538
                                                         0.162492       0.006620

       Atomic covalent radius [Angstrom]:                                  0.730

       Atomic van der Waals radius [Angstrom]:                             1.520

     GTH Potential information for                                    GTH-PBE-q6

       Description:                       Goedecker-Teter-Hutter pseudopotential
                                           Goedecker et al., PRB 54, 1703 (1996)
                                          Hartwigsen et al., PRB 58, 3641 (1998)
                                                      Krack, TCA 114, 145 (2005)

       Gaussian exponent of the core charge distribution:               8.360253
       Electronic configuration (s p d ...):                               2   4

       Parameters of the local part of the GTH pseudopotential:

                          rloc        C1          C2          C3          C4
                        0.244554  -16.667215    2.487311

       Parameters of the non-local part of the GTH pseudopotential:

                   l      r(l)      h(i,j,l)

                   0    0.220956   18.337458
                   1    0.211332

  2. Atomic kind: H                                     Number of atoms:     460

     Orbital Basis Set                                        DZVP-MOLOPT-SR-GTH

       Number of orbital shell sets:                                           1
       Number of orbital shells:                                               3
       Number of primitive Cartesian functions:                                5
       Number of Cartesian basis functions:                                    5
       Number of spherical basis functions:                                    5
       Norm type:                                                              2

       Normalised Cartesian orbitals:

                        Set   Shell   Orbital            Exponent    Coefficient

                          1       1    2s               10.068468      -0.133023
                                                         2.680223      -0.177618
                                                         0.791502      -0.258419
                                                         0.239116      -0.107525
                                                         0.082193      -0.014019

                          1       2    3s               10.068468       0.344673
                                                         2.680223       1.819821
                                                         0.791502      -0.999069
                                                         0.239116       0.017430
                                                         0.082193       0.082660

                          1       3    3px              10.068468       0.155326
                                                         2.680223       0.367157
                                                         0.791502       0.311480
                                                         0.239116       0.080105
                                                         0.082193       0.033440
                          1       3    3py              10.068468       0.155326
                                                         2.680223       0.367157
                                                         0.791502       0.311480
                                                         0.239116       0.080105
                                                         0.082193       0.033440
                          1       3    3pz              10.068468       0.155326
                                                         2.680223       0.367157
                                                         0.791502       0.311480
                                                         0.239116       0.080105
                                                         0.082193       0.033440

       Atomic covalent radius [Angstrom]:                                  0.320

       Atomic van der Waals radius [Angstrom]:                             1.090

     GTH Potential information for                                    GTH-PBE-q1

       Description:                       Goedecker-Teter-Hutter pseudopotential
                                           Goedecker et al., PRB 54, 1703 (1996)
                                          Hartwigsen et al., PRB 58, 3641 (1998)
                                                      Krack, TCA 114, 145 (2005)

       Gaussian exponent of the core charge distribution:              12.500000
       Electronic configuration (s p d ...):                                   1

       Parameters of the local part of the GTH pseudopotential:

                          rloc        C1          C2          C3          C4
                        0.200000   -4.178900    0.724463

  3. Atomic kind: Pt                                    Number of atoms:     216

     Orbital Basis Set                      DZVP-A5-Q10-323-MOL-T1-DERIVED_SET-1

       Number of orbital shell sets:                                           1
       Number of orbital shells:                                               6
       Number of primitive Cartesian functions:                                5
       Number of Cartesian basis functions:                                   23
       Number of spherical basis functions:                                   20
       Norm type:                                                              2

       Normalised Cartesian orbitals:

                        Set   Shell   Orbital            Exponent    Coefficient

                          1       1    2s                2.521825       0.177473
                                                         1.453920      -0.063399
                                                         0.614053      -0.407089
                                                         0.232656       0.262254
                                                         0.074788       0.047371

                          1       2    3s                2.521825      -0.049056
                                                         1.453920       0.044904
                                                         0.614053      -0.009756
                                                         0.232656      -0.144709
                                                         0.074788       0.144085

                          1       3    3px               2.521825      -0.317572
                                                         1.453920       0.534826
                                                         0.614053      -0.489458
                                                         0.232656       0.245631
                                                         0.074788       0.018221
                          1       3    3py               2.521825      -0.317572
                                                         1.453920       0.534826
                                                         0.614053      -0.489458
                                                         0.232656       0.245631
                                                         0.074788       0.018221
                          1       3    3pz               2.521825      -0.317572
                                                         1.453920       0.534826
                                                         0.614053      -0.489458
                                                         0.232656       0.245631
                                                         0.074788       0.018221

                          1       4    4dx2              2.521825       3.008522
                                                         1.453920      -1.224251
                                                         0.614053       0.225691
                                                         0.232656       0.125144
                                                         0.074788      -0.015348
                          1       4    4dxy              2.521825       5.210912
                                                         1.453920      -2.120465
                                                         0.614053       0.390909
                                                         0.232656       0.216756
                                                         0.074788      -0.026584
                          1       4    4dxz              2.521825       5.210912
                                                         1.453920      -2.120465
                                                         0.614053       0.390909
                                                         0.232656       0.216756
                                                         0.074788      -0.026584
                          1       4    4dy2              2.521825       3.008522
                                                         1.453920      -1.224251
                                                         0.614053       0.225691
                                                         0.232656       0.125144
                                                         0.074788      -0.015348
                          1       4    4dyz              2.521825       5.210912
                                                         1.453920      -2.120465
                                                         0.614053       0.390909
                                                         0.232656       0.216756
                                                         0.074788      -0.026584
                          1       4    4dz2              2.521825       3.008522
                                                         1.453920      -1.224251
                                                         0.614053       0.225691
                                                         0.232656       0.125144
                                                         0.074788      -0.015348

                          1       5    5dx2              2.521825       0.698026
                                                         1.453920      -1.511486
                                                         0.614053      -0.335394
                                                         0.232656      -0.025564
                                                         0.074788      -0.002699
                          1       5    5dxy              2.521825       1.209017
                                                         1.453920      -2.617970
                                                         0.614053      -0.580920
                                                         0.232656      -0.044277
                                                         0.074788      -0.004674
                          1       5    5dxz              2.521825       1.209017
                                                         1.453920      -2.617970
                                                         0.614053      -0.580920
                                                         0.232656      -0.044277
                                                         0.074788      -0.004674
                          1       5    5dy2              2.521825       0.698026
                                                         1.453920      -1.511486
                                                         0.614053      -0.335394
                                                         0.232656      -0.025564
                                                         0.074788      -0.002699
                          1       5    5dyz              2.521825       1.209017
                                                         1.453920      -2.617970
                                                         0.614053      -0.580920
                                                         0.232656      -0.044277
                                                         0.074788      -0.004674
                          1       5    5dz2              2.521825       0.698026
                                                         1.453920      -1.511486
                                                         0.614053      -0.335394
                                                         0.232656      -0.025564
                                                         0.074788      -0.002699

                          1       6    6dx2              2.521825       0.831079
                                                         1.453920      -0.709226
                                                         0.614053      -0.137351
                                                         0.232656       0.068642
                                                         0.074788       0.011745
                          1       6    6dxy              2.521825       1.439472
                                                         1.453920      -1.228415
                                                         0.614053      -0.237899
                                                         0.232656       0.118891
                                                         0.074788       0.020343
                          1       6    6dxz              2.521825       1.439472
                                                         1.453920      -1.228415
                                                         0.614053      -0.237899
                                                         0.232656       0.118891
                                                         0.074788       0.020343
                          1       6    6dy2              2.521825       0.831079
                                                         1.453920      -0.709226
                                                         0.614053      -0.137351
                                                         0.232656       0.068642
                                                         0.074788       0.011745
                          1       6    6dyz              2.521825       1.439472
                                                         1.453920      -1.228415
                                                         0.614053      -0.237899
                                                         0.232656       0.118891
                                                         0.074788       0.020343
                          1       6    6dz2              2.521825       0.831079
                                                         1.453920      -0.709226
                                                         0.614053      -0.137351
                                                         0.232656       0.068642
                                                         0.074788       0.011745

       Atomic covalent radius [Angstrom]:                                  1.300

       Atomic van der Waals radius [Angstrom]:                             1.750

     GTH Potential information for                                   GTH-PBE-q10

       Description:                       Goedecker-Teter-Hutter pseudopotential
                                           Goedecker et al., PRB 54, 1703 (1996)
                                          Hartwigsen et al., PRB 58, 3641 (1998)
                                                      Krack, TCA 114, 145 (2005)

       Gaussian exponent of the core charge distribution:               1.317676
       Electronic configuration (s p d ...):                           1   0   9

       Parameters of the local part of the GTH pseudopotential:

                          rloc        C1          C2          C3          C4
                        0.616000   11.313635

       Parameters of the non-local part of the GTH pseudopotential:

                   l      r(l)      h(i,j,l)

                   0    0.550904    4.733491   -1.784594
                                   -1.784594    2.303901
                   1    0.674138    2.534798   -1.778066
                                   -1.778066    2.103836
                   2    0.457392   -7.264011    2.558665
                                    2.558665   -2.901253


 MOLECULE KIND INFORMATION


 All atoms are their own molecule, skipping detailed information


 TOTAL NUMBERS AND MAXIMUM NUMBERS

  Total number of            - Atomic kinds:                                   3
                             - Atoms:                                        906
                             - Shell sets:                                   906
                             - Shells:                                      3826
                             - Primitive Cartesian functions:               4530
                             - Cartesian basis functions:                  10488
                             - Spherical basis functions:                   9610

  Maximum angular momentum of- Orbital basis functions:                        2
                             - Local part of the GTH pseudopotential:          2
                             - Non-local part of the GTH pseudopotential:      4


 MODULE QUICKSTEP:  ATOMIC COORDINATES IN angstrom

 Atom  Kind  Element       X           Y           Z          Z(eff)       Mass
    1   1 O    8      -1.730000  -12.900001    9.140000       6.0000     15.9994
    2   2 H    1      -0.970000  -12.390001    9.000000       1.0000      1.0079
    3   2 H    1      -1.320000  -13.780001    8.970000       1.0000      1.0079
    4   1 O    8       8.220000    3.790000   12.520000       6.0000     15.9994
    5   2 H    1       8.230000    3.690000   13.510000       1.0000      1.0079
    6   2 H    1       9.180000    3.570000   12.270001       1.0000      1.0079
    7   1 O    8      -6.400001  -16.690001   20.520000       6.0000     15.9994
    8   2 H    1      -5.690000  -17.260000   20.150002       1.0000      1.0079
    9   2 H    1      -7.030000  -16.590000   19.750002       1.0000      1.0079
   10   1 O    8       6.740000    6.860001    8.220000       6.0000     15.9994
   11   2 H    1       6.350000    7.610001    8.840000       1.0000      1.0079
   12   2 H    1       7.600000    6.630001    8.670000       1.0000      1.0079
   13   1 O    8       4.230000  -17.820000   15.660001       6.0000     15.9994
   14   2 H    1       4.630000  -18.650002   15.330001       1.0000      1.0079
   15   2 H    1       4.460000  -17.190001   14.970001       1.0000      1.0079
   16   1 O    8       7.600000   32.990002   15.300001       6.0000     15.9994
   17   2 H    1       7.670000   33.990002   15.260000       1.0000      1.0079
   18   2 H    1       6.630001   32.890003   15.460001       1.0000      1.0079
   19   1 O    8      -1.660000   27.730003   15.530001       6.0000     15.9994
   20   2 H    1      -1.940000   28.590002   15.800000       1.0000      1.0079
   21   2 H    1      -1.520000   27.210003   16.340000       1.0000      1.0079
   22   1 O    8      -2.660000   29.060001    8.330001       6.0000     15.9994
   23   2 H    1      -1.690000   28.790001    8.560000       1.0000      1.0079
   24   2 H    1       5.040000   13.810000    8.620001       1.0000      1.0079
   25   1 O    8     -26.800001  -24.860001   24.180002       6.0000     15.9994
   26   2 H    1     -26.650002  -23.990002   23.650000       1.0000      1.0079
   27   2 H    1     -25.940001  -24.860001   24.630001       1.0000      1.0079
   28   1 O    8       0.900000    1.600000   22.780001       6.0000     15.9994
   29   2 H    1       0.160000    2.270000   22.620001       1.0000      1.0079
   30   2 H    1       1.610000    2.250000   23.040001       1.0000      1.0079
   31   1 O    8       2.580000    0.490000   20.550001       6.0000     15.9994
   32   2 H    1       1.930000    0.860000   21.140001       1.0000      1.0079
   33   2 H    1       2.440000   -0.500000   20.610001       1.0000      1.0079
   34   1 O    8      -7.290000  -22.720001   15.900001       6.0000     15.9994
   35   2 H    1      -6.740000  -22.440002   16.730001       1.0000      1.0079
   36   2 H    1      -6.830000  -22.200001   15.210000       1.0000      1.0079
   37   1 O    8     -10.700001  -13.730000   30.260002       6.0000     15.9994
   38   2 H    1     -11.630001  -13.140000   30.210001       1.0000      1.0079
   39   2 H    1     -10.810001  -14.690001   30.050001       1.0000      1.0079
   40   1 O    8      18.930000   16.180000    9.100000       6.0000     15.9994
   41   2 H    1      19.710001   16.470001    9.720000       1.0000      1.0079
   42   2 H    1      19.420002   16.090000    8.250000       1.0000      1.0079
   43   1 O    8      -1.010000   -7.820001   27.370003       6.0000     15.9994
   44   2 H    1      -1.870000   -8.020000   26.820002       1.0000      1.0079
   45   2 H    1      -1.070000   -8.510000   28.110001       1.0000      1.0079
   46   1 O    8      -1.830000   16.750000   32.389999       6.0000     15.9994
   47   2 H    1      -2.350000   15.910001   32.560001       1.0000      1.0079
   48   2 H    1      -1.680000   17.130001   33.290001       1.0000      1.0079
   49   1 O    8     -10.110001   13.200001   22.070000       6.0000     15.9994
   50   2 H    1      -9.990001   12.210001   21.740000       1.0000      1.0079
   51   2 H    1      -9.630001   13.240002   22.930002       1.0000      1.0079
   52   1 O    8      -5.220000    8.300000   11.710000       6.0000     15.9994
   53   2 H    1      -4.270000    8.550000   11.750001       1.0000      1.0079
   54   2 H    1      -5.760000    8.460000   12.530001       1.0000      1.0079
   55   1 O    8      -3.320000   -8.590000   25.960003       6.0000     15.9994
   56   2 H    1      -3.840000   -9.060000   26.700001       1.0000      1.0079
   57   2 H    1      -2.980000   -9.350000   25.420000       1.0000      1.0079
   58   1 O    8      18.630001   -2.860000   22.990000       6.0000     15.9994
   59   2 H    1      18.820002   -2.690000   22.010002       1.0000      1.0079
   60   2 H    1      19.050001   -2.060000   23.460003       1.0000      1.0079
   61   1 O    8     -15.100001   35.310001   32.150002       6.0000     15.9994
   62   2 H    1     -15.360001   34.340004   32.280003       1.0000      1.0079
   63   2 H    1       2.580000   35.270000   32.660004       1.0000      1.0079
   64   1 O    8      29.220001  -16.090000    9.250001       6.0000     15.9994
   65   2 H    1      29.310001  -17.010000    8.890000       1.0000      1.0079
   66   2 H    1      45.540005  -15.690001    8.620001       1.0000      1.0079
   67   1 O    8       8.470000   -0.120000    8.200001       6.0000     15.9994
   68   2 H    1      -0.120000   13.510000    8.290001       1.0000      1.0079
   69   2 H    1       9.320001    0.190000    8.530001       1.0000      1.0079
   70   1 O    8      -9.680000   22.630001   30.340002       6.0000     15.9994
   71   2 H    1      -9.940001   21.700001   29.990002       1.0000      1.0079
   72   2 H    1     -10.160000   23.350000   29.880001       1.0000      1.0079
   73   1 O    8     -12.180000   -3.040000   25.800001       6.0000     15.9994
   74   2 H    1     -12.490001   -2.390000   26.490002       1.0000      1.0079
   75   2 H    1     -12.100000   -2.620000   24.980001       1.0000      1.0079
   76   1 O    8      -6.370000    8.790001   30.520000       6.0000     15.9994
   77   2 H    1      -5.680000    8.800000   31.250002       1.0000      1.0079
   78   2 H    1      -6.430000    7.850000   30.230003       1.0000      1.0079
   79   1 O    8     -10.580001  -35.040001   23.240002       6.0000     15.9994
   80   2 H    1     -10.470000  -35.720001   22.600000       1.0000      1.0079
   81   2 H    1     -11.120001  -35.450001   23.930000       1.0000      1.0079
   82   1 O    8       4.960000   -7.360001   17.250000       6.0000     15.9994
   83   2 H    1       5.730000   -7.280001   17.810001       1.0000      1.0079
   84   2 H    1       5.300000   -7.820001   16.490000       1.0000      1.0079
   85   1 O    8      -4.180000   16.960001    8.190001       6.0000     15.9994
   86   2 H    1      -4.040000   17.920000    8.590000       1.0000      1.0079
   87   2 H    1      -3.260000   16.610001    8.480000       1.0000      1.0079
   88   1 O    8      18.360001   -5.230000   18.340000       6.0000     15.9994
   89   2 H    1       1.970000   -4.480000   18.690001       1.0000      1.0079
   90   2 H    1      18.980001   -6.040000   18.350000       1.0000      1.0079
   91   1 O    8       6.490001   -9.040001   12.410001       6.0000     15.9994
   92   2 H    1       6.880000   -9.910001   12.220000       1.0000      1.0079
   93   2 H    1       7.160000   -8.360001   12.030001       1.0000      1.0079
   94   1 O    8      17.490002   24.270000   15.750000       6.0000     15.9994
   95   2 H    1      17.880001   24.139999   16.700001       1.0000      1.0079
   96   2 H    1      17.690001   25.200003   15.700001       1.0000      1.0079
   97   1 O    8     -25.190001   -9.040001    8.890000       6.0000     15.9994
   98   2 H    1     -24.260002   -8.760000    8.830000       1.0000      1.0079
   99   2 H    1     -25.260000   -9.360001    7.950000       1.0000      1.0079
  100   1 O    8       4.680000   -5.460000   15.120001       6.0000     15.9994
  101   2 H    1       4.710000   -4.490000   15.160000       1.0000      1.0079
  102   2 H    1       4.720000   -5.790000   16.030001       1.0000      1.0079
  103   1 O    8      18.100000    8.860001   18.870001       6.0000     15.9994
  104   2 H    1      18.410000    9.220000   19.770000       1.0000      1.0079
  105   2 H    1       0.680000    8.070001   19.130001       1.0000      1.0079
  106   1 O    8      -3.910000    7.040000    8.130000       6.0000     15.9994
  107   2 H    1      -4.100000    6.090000    8.240001       1.0000      1.0079
  108   2 H    1      -4.780000    7.590001    8.450001       1.0000      1.0079
  109   1 O    8      23.800001   15.070001   12.940001       6.0000     15.9994
  110   2 H    1      23.660002   14.510001   12.060001       1.0000      1.0079
  111   2 H    1      24.680002   14.840001   13.330001       1.0000      1.0079
  112   1 O    8     -13.670001    6.760001   29.850002       6.0000     15.9994
  113   2 H    1     -14.430000    7.320001   29.470001       1.0000      1.0079
  114   2 H    1     -14.070001    6.380000   30.660002       1.0000      1.0079
  115   1 O    8      13.170000   19.490002    9.090000       6.0000     15.9994
  116   2 H    1      13.620001   19.450001   10.030001       1.0000      1.0079
  117   2 H    1      13.910000   19.950001    8.590000       1.0000      1.0079
  118   1 O    8     -21.840000   19.680000   27.690001       6.0000     15.9994
  119   2 H    1     -21.790001   18.820002   28.270000       1.0000      1.0079
  120   2 H    1     -21.740000   20.360001   28.470001       1.0000      1.0079
  121   1 O    8      15.970001   10.820000   26.400002       6.0000     15.9994
  122   2 H    1      15.010000   10.880001   26.070002       1.0000      1.0079
  123   2 H    1      16.520000   11.350001   25.690001       1.0000      1.0079
  124   1 O    8     -18.730001   10.400001   29.010000       6.0000     15.9994
  125   2 H    1     -28.140001   24.920002   28.720001       1.0000      1.0079
  126   2 H    1     -18.310001   10.900001   28.180000       1.0000      1.0079
  127   1 O    8      12.600001   -8.570001   15.540000       6.0000     15.9994
  128   2 H    1      13.570002   -8.350000   15.490000       1.0000      1.0079
  129   2 H    1       3.950000    6.410000   16.440001       1.0000      1.0079
  130   1 O    8      -5.790000    5.910000   30.080002       6.0000     15.9994
  131   2 H    1      -6.000000    5.830000   31.090002       1.0000      1.0079
  132   2 H    1      -6.290000    5.330000   29.580002       1.0000      1.0079
  133   1 O    8       1.310000   25.100002    8.970000       6.0000     15.9994
  134   2 H    1       1.440000   24.130001    8.890000       1.0000      1.0079
  135   2 H    1       1.710000   25.480001    8.120001       1.0000      1.0079
  136   1 O    8     -21.350000    4.770000   25.580002       6.0000     15.9994
  137   2 H    1     -21.220001    5.730000   25.490000       1.0000      1.0079
  138   2 H    1     -20.500002    4.370000   25.250000       1.0000      1.0079
  139   1 O    8       0.690000   11.630001   24.400002       6.0000     15.9994
  140   2 H    1       1.690000   11.770000   24.400002       1.0000      1.0079
  141   2 H    1       0.500000   10.890001   23.760002       1.0000      1.0079
  142   1 O    8       2.450000    8.020000   13.910000       6.0000     15.9994
  143   2 H    1       3.160000    7.480001   14.370001       1.0000      1.0079
  144   2 H    1       2.360000    8.840000   14.450001       1.0000      1.0079
  145   1 O    8     -16.740000   32.190002    9.520000       6.0000     15.9994
  146   2 H    1       0.050000   33.220001    9.370001       1.0000      1.0079
  147   2 H    1     -17.540001   31.860001    9.110001       1.0000      1.0079
  148   1 O    8     -34.470001   23.490002   29.390001       6.0000     15.9994
  149   2 H    1     -34.420002   22.850000   28.680000       1.0000      1.0079
  150   2 H    1     -34.370003   24.400002   28.970001       1.0000      1.0079
  151   1 O    8     -12.040001   15.250001   18.360001       6.0000     15.9994
  152   2 H    1     -11.160001   15.170001   17.810001       1.0000      1.0079
  153   2 H    1     -12.340001   16.030001   17.880001       1.0000      1.0079
  154   1 O    8     -19.630001  -14.090000   26.910002       6.0000     15.9994
  155   2 H    1     -18.660000  -14.370001   26.870001       1.0000      1.0079
  156   2 H    1     -19.620001  -13.300000   27.590000       1.0000      1.0079
  157   1 O    8       3.810000   -8.880001   11.780001       6.0000     15.9994
  158   2 H    1       4.740000   -8.770000   12.000000       1.0000      1.0079
  159   2 H    1       3.420000   -7.920001   11.480000       1.0000      1.0079
  160   1 O    8      -1.320000   -3.520000    9.010000       6.0000     15.9994
  161   2 H    1      -0.290000   -3.700000    8.990001       1.0000      1.0079
  162   2 H    1      -1.450000   -3.650000    8.020000       1.0000      1.0079
  163   1 O    8      41.220001   -9.170000   33.440002       6.0000     15.9994
  164   2 H    1      40.380001   -9.220000   32.950001       1.0000      1.0079
  165   2 H    1      41.570000  -10.050000   33.220001       1.0000      1.0079
  166   1 O    8       7.410001   -5.960000   14.840001       6.0000     15.9994
  167   2 H    1       6.390000   -6.020000   14.860001       1.0000      1.0079
  168   2 H    1       7.590001   -5.510000   15.740002       1.0000      1.0079
  169   1 O    8     -38.180000    0.610000   26.639999       6.0000     15.9994
  170   2 H    1     -21.330002   -0.230000   26.010000       1.0000      1.0079
  171   2 H    1     -20.430000    0.910000   26.580002       1.0000      1.0079
  172   1 O    8       2.120000  -20.780001   11.050000       6.0000     15.9994
  173   2 H    1       1.930000  -21.550003   10.520000       1.0000      1.0079
  174   2 H    1       2.530000  -21.080000   11.900001       1.0000      1.0079
  175   1 O    8       8.720000    2.790000   21.730001       6.0000     15.9994
  176   2 H    1       7.790000    2.460000   21.850002       1.0000      1.0079
  177   2 H    1       8.820001    3.570000   22.310001       1.0000      1.0079
  178   1 O    8     -11.740000   22.250002   25.370003       6.0000     15.9994
  179   2 H    1     -12.330000   22.840002   25.920000       1.0000      1.0079
  180   2 H    1     -10.870000   22.110003   25.800001       1.0000      1.0079
  181   1 O    8      20.990002    3.150000   32.000000       6.0000     15.9994
  182   2 H    1      20.810001    3.320000   31.060001       1.0000      1.0079
  183   2 H    1      21.850002    2.670000   32.029999       1.0000      1.0079
  184   1 O    8       2.060000    7.540000   24.490002       6.0000     15.9994
  185   2 H    1       3.000000    7.960001   24.720001       1.0000      1.0079
  186   2 H    1       2.190000    6.670001   24.860001       1.0000      1.0079
  187   1 O    8     -14.420000   34.510002   21.840000       6.0000     15.9994
  188   2 H    1     -15.260000   35.010002   21.850002       1.0000      1.0079
  189   2 H    1     -13.740001   35.130001   21.510000       1.0000      1.0079
  190   1 O    8       8.020000   15.770000   28.350000       6.0000     15.9994
  191   2 H    1       7.270000   15.630001   28.980003       1.0000      1.0079
  192   2 H    1       8.340000   16.730001   28.510000       1.0000      1.0079
  193   1 O    8      16.220001   12.580000   18.090002       6.0000     15.9994
  194   2 H    1      16.680000   13.430000   18.200001       1.0000      1.0079
  195   2 H    1      15.670000   12.540001   18.980001       1.0000      1.0079
  196   1 O    8     -28.530003   -1.520000   30.200003       6.0000     15.9994
  197   2 H    1     -29.300001   -1.630000   29.560001       1.0000      1.0079
  198   2 H    1     -28.290003   -2.410000   30.520000       1.0000      1.0079
  199   1 O    8     -19.170000   16.940001   28.930000       6.0000     15.9994
  200   2 H    1     -18.640001   17.810001   29.080002       1.0000      1.0079
  201   2 H    1     -18.630001   16.160000   29.390001       1.0000      1.0079
  202   1 O    8       6.580000   13.190001   10.810001       6.0000     15.9994
  203   2 H    1       5.790000   12.890000   11.180000       1.0000      1.0079
  204   2 H    1       6.780000   12.580000   10.090000       1.0000      1.0079
  205   1 O    8      19.100000   -2.910000   12.450000       6.0000     15.9994
  206   2 H    1       9.920000   11.220001   12.780001       1.0000      1.0079
  207   2 H    1      19.190002   -3.400000   11.640000       1.0000      1.0079
  208   1 O    8      -8.970000  -11.510000   21.030003       6.0000     15.9994
  209   2 H    1      -9.360001  -10.640000   21.210001       1.0000      1.0079
  210   2 H    1      -9.700001  -12.190001   20.870001       1.0000      1.0079
  211   1 O    8      -4.210001   -5.780000   25.130001       6.0000     15.9994
  212   2 H    1      -4.000000   -5.550000   24.130001       1.0000      1.0079
  213   2 H    1      -3.590000   -6.570000   25.280001       1.0000      1.0079
  214   1 O    8       8.640000    9.810000   24.000000       6.0000     15.9994
  215   2 H    1       9.210001    9.130000   24.470001       1.0000      1.0079
  216   2 H    1       9.360001   10.490000   23.670002       1.0000      1.0079
  217   1 O    8     -23.390003    1.080000   23.120001       6.0000     15.9994
  218   2 H    1     -23.320000    0.100000   22.800003       1.0000      1.0079
  219   2 H    1     -23.990002    1.550000   22.540001       1.0000      1.0079
  220   1 O    8      34.590000    5.760000   14.950001       6.0000     15.9994
  221   2 H    1      34.850002    5.020000   14.350000       1.0000      1.0079
  222   2 H    1      34.910004    6.540000   14.450001       1.0000      1.0079
  223   1 O    8     -10.480001    6.550000   18.860001       6.0000     15.9994
  224   2 H    1       6.930000    5.740000   19.180000       1.0000      1.0079
  225   2 H    1     -10.510000    6.540000   17.880001       1.0000      1.0079
  226   1 O    8       8.090000   29.890001   11.750001       6.0000     15.9994
  227   2 H    1       7.720000   30.670002   11.320001       1.0000      1.0079
  228   2 H    1      24.280003   29.190002   11.490001       1.0000      1.0079
  229   1 O    8      -5.060000    9.590000   22.610001       6.0000     15.9994
  230   2 H    1      -4.150000    9.450001   22.720001       1.0000      1.0079
  231   2 H    1      -5.440001   10.460000   22.950001       1.0000      1.0079
  232   1 O    8       4.760000    8.520000   32.430004       6.0000     15.9994
  233   2 H    1       5.170000    8.630000   31.560001       1.0000      1.0079
  234   2 H    1       5.540000    8.540000   33.060001       1.0000      1.0079
  235   1 O    8      -1.190000   34.970001   28.870001       6.0000     15.9994
  236   2 H    1      -2.100000   34.760002   28.510000       1.0000      1.0079
  237   2 H    1      -0.610000   35.330002   28.180000       1.0000      1.0079
  238   1 O    8       1.800000    0.260000   29.940002       6.0000     15.9994
  239   2 H    1      -7.450001   15.050001   29.470001       1.0000      1.0079
  240   2 H    1       1.750000    0.800000   30.790003       1.0000      1.0079
  241   1 O    8      10.470000    2.110000   30.330002       6.0000     15.9994
  242   2 H    1      10.060000    1.960000   31.200001       1.0000      1.0079
  243   2 H    1      10.510000    1.240000   29.910002       1.0000      1.0079
  244   1 O    8       0.160000   -0.450000    8.140000       6.0000     15.9994
  245   2 H    1       0.880000    0.040000    8.550000       1.0000      1.0079
  246   2 H    1       0.480000   -1.350000    8.420001       1.0000      1.0079
  247   1 O    8      17.310001    3.490000   32.290001       6.0000     15.9994
  248   2 H    1      17.350002    3.680000   31.330002       1.0000      1.0079
  249   2 H    1      18.040001    2.830000   32.470001       1.0000      1.0079
  250   1 O    8      24.480001   -1.050000   23.640001       6.0000     15.9994
  251   2 H    1      25.150002   -1.830000   23.830002       1.0000      1.0079
  252   2 H    1      24.610003   -0.760000   24.600000       1.0000      1.0079
  253   1 O    8      -2.750000    2.580000    9.070001       6.0000     15.9994
  254   2 H    1      -3.410000    3.170000    8.580000       1.0000      1.0079
  255   2 H    1      -2.890000    1.710000    8.610001       1.0000      1.0079
  256   1 O    8      12.520000  -12.060001   12.570001       6.0000     15.9994
  257   2 H    1      11.670000  -11.630001   12.650002       1.0000      1.0079
  258   2 H    1      12.360001  -13.020000   12.460001       1.0000      1.0079
  259   1 O    8      -9.100000   33.670002   19.500000       6.0000     15.9994
  260   2 H    1      -9.260000   33.160004   20.360001       1.0000      1.0079
  261   2 H    1      -8.150001   34.000000   19.680000       1.0000      1.0079
  262   1 O    8       5.720000    4.520000   11.590000       6.0000     15.9994
  263   2 H    1       6.690001    4.350000   11.680001       1.0000      1.0079
  264   2 H    1       5.290000    3.630000   11.840000       1.0000      1.0079
  265   1 O    8       9.260000    0.180000   18.480000       6.0000     15.9994
  266   2 H    1       8.590000    0.790000   18.020000       1.0000      1.0079
  267   2 H    1      18.340000   14.590001   17.770000       1.0000      1.0079
  268   1 O    8      -6.290000   -9.820001   25.300003       6.0000     15.9994
  269   2 H    1      -5.950000  -10.500001   24.650002       1.0000      1.0079
  270   2 H    1      -5.810000   -9.700001   26.140001       1.0000      1.0079
  271   1 O    8       6.280000   -1.210000   10.890001       6.0000     15.9994
  272   2 H    1       5.400000   -1.030000   10.420000       1.0000      1.0079
  273   2 H    1       5.980001   -1.930000   11.550001       1.0000      1.0079
  274   1 O    8      -2.590000    9.110001   11.550001       6.0000     15.9994
  275   2 H    1      -2.570000    9.130000   10.600000       1.0000      1.0079
  276   2 H    1      -1.850000    8.610001   11.910001       1.0000      1.0079
  277   1 O    8      11.030001    7.060000   18.270000       6.0000     15.9994
  278   2 H    1      -4.840000    6.850000   18.190001       1.0000      1.0079
  279   2 H    1      10.680000    6.440001   19.050001       1.0000      1.0079
  280   1 O    8      26.570000   -3.930000   32.790001       6.0000     15.9994
  281   2 H    1      27.030001   -3.350000   33.380001       1.0000      1.0079
  282   2 H    1      26.900002   -3.640000   31.880001       1.0000      1.0079
  283   1 O    8      27.100000   -4.210001   14.790001       6.0000     15.9994
  284   2 H    1      19.410002   10.950001   15.210000       1.0000      1.0079
  285   2 H    1      26.480003   -4.350000   15.580001       1.0000      1.0079
  286   1 O    8     -23.520000   30.340002   15.750000       6.0000     15.9994
  287   2 H    1      -7.510000   29.890001   15.450001       1.0000      1.0079
  288   2 H    1     -22.870003   29.650002   15.490000       1.0000      1.0079
  289   1 O    8      -3.910000    2.830000   30.410002       6.0000     15.9994
  290   2 H    1      -3.930000    3.320000   29.550001       1.0000      1.0079
  291   2 H    1      -4.870000    2.530000   30.590002       1.0000      1.0079
  292   1 O    8      12.450000    3.780000   18.330000       6.0000     15.9994
  293   2 H    1      13.410001    3.980000   18.200001       1.0000      1.0079
  294   2 H    1      12.080001    3.610000   17.460001       1.0000      1.0079
  295   1 O    8       3.280000   17.840000   33.430000       6.0000     15.9994
  296   2 H    1       4.100000   18.440001   33.340000       1.0000      1.0079
  297   2 H    1       3.700000   17.000000   33.290001       1.0000      1.0079
  298   1 O    8      -7.580000   27.680000   28.730001       6.0000     15.9994
  299   2 H    1      -7.510000   26.820002   29.190002       1.0000      1.0079
  300   2 H    1      -8.240001   28.280001   29.090002       1.0000      1.0079
  301   1 O    8     -14.220000   18.160002   12.700001       6.0000     15.9994
  302   2 H    1     -14.280001   18.080002   13.660001       1.0000      1.0079
  303   2 H    1     -13.820001   18.990000   12.420001       1.0000      1.0079
  304   1 O    8      -3.280000   12.910000   23.040001       6.0000     15.9994
  305   2 H    1      -2.400000   13.160001   23.400002       1.0000      1.0079
  306   2 H    1      -3.030000   12.900001   22.090000       1.0000      1.0079
  307   1 O    8     -13.170000    9.630001    9.070001       6.0000     15.9994
  308   2 H    1     -13.770000    9.180000    9.760000       1.0000      1.0079
  309   2 H    1     -13.740001    9.770000    8.260000       1.0000      1.0079
  310   1 O    8     -18.790001   30.630001   26.220001       6.0000     15.9994
  311   2 H    1     -18.410000   29.880001   25.680000       1.0000      1.0079
  312   2 H    1     -18.140001   30.670002   27.000000       1.0000      1.0079
  313   1 O    8       1.930000   -0.190000   26.250002       6.0000     15.9994
  314   2 H    1       2.330000   -0.070000   25.340002       1.0000      1.0079
  315   2 H    1       1.660000    0.700000   26.490002       1.0000      1.0079
  316   1 O    8       5.930000  -16.370001   30.140001       6.0000     15.9994
  317   2 H    1       6.260000  -16.710001   31.050003       1.0000      1.0079
  318   2 H    1       5.120000  -16.780001   29.800003       1.0000      1.0079
  319   1 O    8      -4.480000   -0.090000   14.540001       6.0000     15.9994
  320   2 H    1      -5.010000   -0.190000   13.700001       1.0000      1.0079
  321   2 H    1      -3.570000    0.090000   14.130001       1.0000      1.0079
  322   1 O    8      20.430000    8.050001   17.550001       6.0000     15.9994
  323   2 H    1      19.680000    8.520000   17.889999       1.0000      1.0079
  324   2 H    1      21.200001    8.590000   17.510000       1.0000      1.0079
  325   1 O    8      -0.700000   26.290001   25.660002       6.0000     15.9994
  326   2 H    1      -0.330000   26.530001   26.590002       1.0000      1.0079
  327   2 H    1      -0.280000   25.450001   25.400002       1.0000      1.0079
  328   1 O    8       0.170000   12.090001   13.440001       6.0000     15.9994
  329   2 H    1      -0.840000   11.820001   13.350000       1.0000      1.0079
  330   2 H    1       0.580000   11.560000   14.190001       1.0000      1.0079
  331   1 O    8     -30.810001   32.350002   23.480000       6.0000     15.9994
  332   2 H    1     -30.710001   33.110001   22.750000       1.0000      1.0079
  333   2 H    1     -29.900002   32.050003   23.830002       1.0000      1.0079
  334   1 O    8     -18.150002    1.110000   16.860001       6.0000     15.9994
  335   2 H    1     -18.220001    2.070000   17.150000       1.0000      1.0079
  336   2 H    1     -17.250000    0.910000   17.130001       1.0000      1.0079
  337   1 O    8       3.530000   21.930000   32.360001       6.0000     15.9994
  338   2 H    1      11.670000    7.200000   33.310001       1.0000      1.0079
  339   2 H    1     -12.440001   22.490002   32.450001       1.0000      1.0079
  340   1 O    8      10.980000   28.670002   11.900001       6.0000     15.9994
  341   2 H    1      11.550001   29.380001   11.510000       1.0000      1.0079
  342   2 H    1      10.060000   28.900002   11.710000       1.0000      1.0079
  343   1 O    8       8.910000   12.960000   18.520000       6.0000     15.9994
  344   2 H    1       7.930000   12.860001   18.440001       1.0000      1.0079
  345   2 H    1       9.250001   13.870001   18.280001       1.0000      1.0079
  346   1 O    8      -1.230000   -8.220000   31.380003       6.0000     15.9994
  347   2 H    1      -0.930000   -7.310000   31.180000       1.0000      1.0079
  348   2 H    1      -0.440000   -8.620001   31.910002       1.0000      1.0079
  349   1 O    8       7.490000    0.080000   29.900002       6.0000     15.9994
  350   2 H    1       7.880001    0.080000   30.800001       1.0000      1.0079
  351   2 H    1       6.840000   -0.660000   29.930000       1.0000      1.0079
  352   1 O    8       0.340000   14.290000   32.710003       6.0000     15.9994
  353   2 H    1       0.360000   14.150001   33.690002       1.0000      1.0079
  354   2 H    1       1.260000   14.120001   32.510002       1.0000      1.0079
  355   1 O    8       6.420000   -1.790000   20.490000       6.0000     15.9994
  356   2 H    1       7.250000   -1.320000   20.760002       1.0000      1.0079
  357   2 H    1       5.850000   -1.200000   19.860001       1.0000      1.0079
  358   1 O    8      -0.650000   23.310001   19.980001       6.0000     15.9994
  359   2 H    1      -0.980000   22.450001   19.590000       1.0000      1.0079
  360   2 H    1       0.160000   23.660002   19.500000       1.0000      1.0079
  361   1 O    8     -22.090000    9.010000   26.500000       6.0000     15.9994
  362   2 H    1     -22.020000    9.290000   27.430000       1.0000      1.0079
  363   2 H    1     -21.920002    9.890000   26.120003       1.0000      1.0079
  364   1 O    8      -1.370000   21.260002   15.570001       6.0000     15.9994
  365   2 H    1      -1.720000   22.130001   15.380001       1.0000      1.0079
  366   2 H    1      -0.460000   21.470001   15.850000       1.0000      1.0079
  367   1 O    8       6.230001   12.440001   18.570002       6.0000     15.9994
  368   2 H    1       5.290000   12.540001   18.400000       1.0000      1.0079
  369   2 H    1       6.270000   11.410000   18.480000       1.0000      1.0079
  370   1 O    8     -23.930000    1.510000   25.620001       6.0000     15.9994
  371   2 H    1     -22.980001    1.270000   25.960003       1.0000      1.0079
  372   2 H    1     -23.880001    1.310000   24.650002       1.0000      1.0079
  373   1 O    8      -1.100000    0.770000   32.480003       6.0000     15.9994
  374   2 H    1      -0.800000    1.620000   32.920002       1.0000      1.0079
  375   2 H    1      -1.520000    1.050000   31.590002       1.0000      1.0079
  376   1 O    8      -8.250000    7.700000   11.920000       6.0000     15.9994
  377   2 H    1      -7.980001    7.380000   12.760000       1.0000      1.0079
  378   2 H    1      -9.220000    7.620000   11.980001       1.0000      1.0079
  379   1 O    8       0.530000    3.730000   29.450001       6.0000     15.9994
  380   2 H    1       1.340000    3.930000   28.910000       1.0000      1.0079
  381   2 H    1      -0.170000    4.360000   29.060001       1.0000      1.0079
  382   1 O    8      -7.400000    4.160000   25.910000       6.0000     15.9994
  383   2 H    1      -6.550000    4.570000   25.700001       1.0000      1.0079
  384   2 H    1      -7.380000    3.210000   25.750000       1.0000      1.0079
  385   1 O    8       4.130000   26.520002   14.780001       6.0000     15.9994
  386   2 H    1       3.190000   26.480003   15.190001       1.0000      1.0079
  387   2 H    1       4.630000   27.060001   15.410002       1.0000      1.0079
  388   1 O    8       3.930000   12.780001    8.990001       6.0000     15.9994
  389   2 H    1       3.400000   12.080001    8.380001       1.0000      1.0079
  390   2 H    1       3.200000   13.370000    9.260000       1.0000      1.0079
  391   1 O    8       0.360000   18.240002    8.930000       6.0000     15.9994
  392   2 H    1       0.410000   18.490002    7.940001       1.0000      1.0079
  393   2 H    1       1.040000   17.520000    8.930000       1.0000      1.0079
  394   1 O    8       8.240001   28.720001   26.360001       6.0000     15.9994
  395   2 H    1      17.380001   14.830000   26.200001       1.0000      1.0079
  396   2 H    1       8.680000   28.160002   27.010002       1.0000      1.0079
  397   1 O    8      -6.870000   15.430001   18.120001       6.0000     15.9994
  398   2 H    1      -6.560000   15.460001   19.080002       1.0000      1.0079
  399   2 H    1      -6.010000   15.350000   17.530001       1.0000      1.0079
  400   1 O    8       5.220000   19.500000   32.240002       6.0000     15.9994
  401   2 H    1       5.190001   18.920000   31.480003       1.0000      1.0079
  402   2 H    1       4.750000   20.380001   32.070004       1.0000      1.0079
  403   1 O    8      19.990002   43.560005   29.100000       6.0000     15.9994
  404   2 H    1      20.570002   43.900002   28.340000       1.0000      1.0079
  405   2 H    1      19.250000   43.000000   28.710001       1.0000      1.0079
  406   1 O    8       9.110001   -5.330000   23.240002       6.0000     15.9994
  407   2 H    1       9.590000   -6.100000   23.750000       1.0000      1.0079
  408   2 H    1       8.160001   -5.600000   23.240002       1.0000      1.0079
  409   1 O    8      18.860001    1.140000    9.060000       6.0000     15.9994
  410   2 H    1      19.710001    1.600000    8.640000       1.0000      1.0079
  411   2 H    1      18.280001    1.890000    9.290000       1.0000      1.0079
  412   1 O    8     -27.960003   -4.910000   18.890001       6.0000     15.9994
  413   2 H    1     -27.200001   -4.400000   18.510000       1.0000      1.0079
  414   2 H    1     -27.630003   -5.810000   19.139999       1.0000      1.0079
  415   1 O    8     -24.520000    6.160001    9.620001       6.0000     15.9994
  416   2 H    1     -24.860001    6.470000   10.440001       1.0000      1.0079
  417   2 H    1     -24.600000    5.160000    9.550000       1.0000      1.0079
  418   1 O    8      21.970001   40.490002   26.470001       6.0000     15.9994
  419   2 H    1      22.889999   40.520000   26.060001       1.0000      1.0079
  420   2 H    1      21.730001   39.550003   26.310001       1.0000      1.0079
  421   1 O    8      16.070002   -3.190000   13.560000       6.0000     15.9994
  422   2 H    1      15.660001   -2.400000   14.070001       1.0000      1.0079
  423   2 H    1      15.730000   -3.210000   12.660000       1.0000      1.0079
  424   1 O    8      -3.670000   14.570000   32.430004       6.0000     15.9994
  425   2 H    1      -3.630000   13.970001   31.650002       1.0000      1.0079
  426   2 H    1       5.010000   -0.570000   33.190002       1.0000      1.0079
  427   1 O    8      -6.700000   12.030001   29.850002       6.0000     15.9994
  428   2 H    1      -6.310000   11.610001   30.690002       1.0000      1.0079
  429   2 H    1      -6.750000   12.970000   30.130003       1.0000      1.0079
  430   1 O    8     -15.900001    8.090000   29.280003       6.0000     15.9994
  431   2 H    1     -16.750000    7.970000   29.770002       1.0000      1.0079
  432   2 H    1     -16.150002    8.360001   28.370001       1.0000      1.0079
  433   1 O    8      -1.570000  -21.310001    9.020000       6.0000     15.9994
  434   2 H    1      -1.050000  -22.130001    8.820001       1.0000      1.0079
  435   2 H    1      -2.470000  -21.580000    8.790001       1.0000      1.0079
  436   1 O    8       5.930000   23.080002   32.650002       6.0000     15.9994
  437   2 H    1       6.220000   23.059999   33.580002       1.0000      1.0079
  438   2 H    1      15.150002    8.310000   32.020000       1.0000      1.0079
  439   1 O    8      -1.340000    7.210000   19.450001       6.0000     15.9994
  440   2 H    1      -1.340000    6.600000   20.220001       1.0000      1.0079
  441   2 H    1      -0.850000    6.640000   18.790001       1.0000      1.0079
  442   1 O    8      12.370001   13.230000   27.800003       6.0000     15.9994
  443   2 H    1      13.010001   13.980001   27.580002       1.0000      1.0079
  444   2 H    1      11.580001   13.580000   27.250002       1.0000      1.0079
  445   1 O    8     -15.270000   -2.270000   15.700001       6.0000     15.9994
  446   2 H    1     -15.800000   -1.950000   16.470001       1.0000      1.0079
  447   2 H    1     -15.390000   -1.540000   15.040001       1.0000      1.0079
  448   1 O    8      -0.330000    7.870001   12.410001       6.0000     15.9994
  449   2 H    1       0.290000    8.030001   11.670000       1.0000      1.0079
  450   2 H    1      16.780001    8.550000   13.040000       1.0000      1.0079
  451   1 O    8      11.900001   10.440001   19.900002       6.0000     15.9994
  452   2 H    1      12.730000   10.090000   19.540001       1.0000      1.0079
  453   2 H    1      11.890000   10.060000   20.810001       1.0000      1.0079
  454   1 O    8       4.000000   11.170001   32.430004       6.0000     15.9994
  455   2 H    1       4.060000   11.220001   33.460003       1.0000      1.0079
  456   2 H    1       4.050000   10.140000   32.340004       1.0000      1.0079
  457   1 O    8       0.190000  -19.500000    8.200001       6.0000     15.9994
  458   2 H    1      -0.610000  -20.080002    8.540000       1.0000      1.0079
  459   2 H    1      -0.200000  -18.580000    8.250000       1.0000      1.0079
  460   1 O    8      16.990002   10.220001   16.970001       6.0000     15.9994
  461   2 H    1      16.900002   11.120001   17.350002       1.0000      1.0079
  462   2 H    1       0.690000    9.700001   17.610001       1.0000      1.0079
  463   1 O    8     -14.170000  -22.590000    8.960000       6.0000     15.9994
  464   2 H    1     -13.500000  -23.320000    9.130000       1.0000      1.0079
  465   2 H    1     -13.870001  -21.950001    8.270000       1.0000      1.0079
  466   1 O    8       6.470000   -8.960000   15.090000       6.0000     15.9994
  467   2 H    1       6.520000   -9.090000   14.090000       1.0000      1.0079
  468   2 H    1       7.410001   -8.900001   15.230001       1.0000      1.0079
  469   1 O    8      -7.660000    2.640000   32.510002       6.0000     15.9994
  470   2 H    1      -7.500000    2.360000   33.440002       1.0000      1.0079
  471   2 H    1      -8.590000    2.320000   32.430004       1.0000      1.0079
  472   1 O    8      -0.400000    5.150001   24.010000       6.0000     15.9994
  473   2 H    1      -0.950000    4.550000   24.480001       1.0000      1.0079
  474   2 H    1       0.510000    5.110001   24.490002       1.0000      1.0079
  475   1 O    8       8.930000   -0.600000   21.240002       6.0000     15.9994
  476   2 H    1       8.520000   -0.420000   22.150002       1.0000      1.0079
  477   2 H    1       8.950001    0.250000   20.740002       1.0000      1.0079
  478   1 O    8     -13.850001   29.100000   11.910001       6.0000     15.9994
  479   2 H    1     -14.420000   29.410002   11.150000       1.0000      1.0079
  480   2 H    1     -13.930000   28.120001   11.810001       1.0000      1.0079
  481   1 O    8       0.450000    8.300000   33.330002       6.0000     15.9994
  482   2 H    1       0.840000    7.460001   33.040001       1.0000      1.0079
  483   2 H    1       1.160000    9.080001   33.220001       1.0000      1.0079
  484   1 O    8     -10.340000   47.780003   17.230000       6.0000     15.9994
  485   2 H    1     -10.490000   48.250004   16.330002       1.0000      1.0079
  486   2 H    1      -9.520000   48.270000   17.470001       1.0000      1.0079
  487   1 O    8       4.350000   38.440002   22.480001       6.0000     15.9994
  488   2 H    1       3.680000   38.940002   21.950001       1.0000      1.0079
  489   2 H    1       5.220000   38.900002   22.340002       1.0000      1.0079
  490   1 O    8       2.230000   22.830000   14.200001       6.0000     15.9994
  491   2 H    1       3.180000   23.030003   14.520000       1.0000      1.0079
  492   2 H    1       1.730000   23.500002   14.780001       1.0000      1.0079
  493   1 O    8       1.610000   10.880001   30.090000       6.0000     15.9994
  494   2 H    1      -5.930000   25.400002   29.720001       1.0000      1.0079
  495   2 H    1       1.040000   10.110001   29.820002       1.0000      1.0079
  496   1 O    8       4.170000   11.040001   29.280003       6.0000     15.9994
  497   2 H    1      -4.130000   25.810001   28.380001       1.0000      1.0079
  498   2 H    1      -3.910000   24.740002   29.400002       1.0000      1.0079
  499   1 O    8      13.620001   14.710001   19.060001       6.0000     15.9994
  500   2 H    1      12.670001   14.750000   19.120001       1.0000      1.0079
  501   2 H    1      13.840000   15.650001   19.080002       1.0000      1.0079
  502   1 O    8       2.040000    1.570000   32.360001       6.0000     15.9994
  503   2 H    1       2.070000    0.810000   33.070000       1.0000      1.0079
  504   2 H    1       2.880000    2.060000   32.350002       1.0000      1.0079
  505   1 O    8      22.600000   -0.810000   16.230000       6.0000     15.9994
[...]
    899      3      Pt         -0.01184954     0.00267094     0.02190285
    900      3      Pt          0.00192206     0.01415908     0.00972580
    901      3      Pt          0.00144514    -0.01088754     0.00780818
    902      3      Pt         -0.02328344    -0.00446803    -0.00932766
    903      3      Pt          0.00783930     0.00398092    -0.00109238
    904      3      Pt         -0.00443768     0.00608655    -0.01218898
    905      3      Pt          0.00852875     0.00615140     0.00000718
    906      3      Pt          0.00564496     0.00046936     0.01131076
 SUM OF ATOMIC FORCES           0.00387988     0.00869052     0.01957895     0.02176956

 STRESS| Analytical stress tensor [GPa]
 STRESS|                        x                   y                   z
 STRESS|      x       -2.62579239887E+00  -7.84139019952E-03   1.55789049217E-01
 STRESS|      y       -7.84139019952E-03  -2.62194476555E+00   1.53370557927E-01
 STRESS|      z        1.55789049217E-01   1.53370557927E-01  -4.99817187717E-01
 STRESS| 1/3 Trace                                            -1.91585145071E+00
 STRESS| Determinant                                          -3.31602622437E+00

 STRESS| Eigenvectors and eigenvalues of the analytical stress tensor [GPa]
 STRESS|                        1                   2                   3
 STRESS| Eigenvalues  -2.65401035090E+00  -2.61591361818E+00  -4.77630383056E-01
 STRESS|      x           0.741219718885     -0.667401513964      0.071892610844
 STRESS|      y           0.663642951323      0.744682354522      0.070895867460
 STRESS|      z          -0.100853167993     -0.004838390510      0.994889555922

 -------------------------------------------------------------------------------
 -                                                                             -
 -                                DBCSR STATISTICS                             -
 -                                                                             -
 -------------------------------------------------------------------------------
 COUNTER                                    TOTAL       BLAS       SMM       ACC
 flops     5 x     5 x   288          82169740800       0.0%    100.0%      0.0%
 flops     5 x     5 x   292          83310987200       0.0%    100.0%      0.0%
 flops     5 x    13 x   288          92730044160       0.0%    100.0%      0.0%
 flops    13 x     5 x   288          92821098240       0.0%    100.0%      0.0%
 flops     5 x    13 x   292          94017961440       0.0%    100.0%      0.0%
 flops    13 x     5 x   292          94110280160       0.0%    100.0%      0.0%
 flops    13 x    20 x   288          95174277120       0.0%    100.0%      0.0%
 flops    20 x    13 x   288          95185658880       0.0%    100.0%      0.0%
 flops    13 x    20 x   292          96496142080       0.0%    100.0%      0.0%
 flops    20 x    13 x   292          96507681920       0.0%    100.0%      0.0%
 flops    13 x    13 x   288          98824407552       0.0%    100.0%      0.0%
 flops    13 x    13 x   292         100196968768       0.0%    100.0%      0.0%
 flops    20 x     5 x   288         103407667200       0.0%    100.0%      0.0%
 flops     5 x    20 x   288         103582771200       0.0%    100.0%      0.0%
 flops    20 x     5 x   292         104843884800       0.0%    100.0%      0.0%
 flops     5 x    20 x   292         105021420800       0.0%    100.0%      0.0%
 flops    20 x    20 x   288         410373734400       0.0%    100.0%      0.0%
 flops    20 x    20 x   292         416073369600       0.0%    100.0%      0.0%
 flops     5 x     5 x   320         547798272000       0.0%    100.0%      0.0%
 flops     5 x    13 x   320         618200294400       0.0%    100.0%      0.0%
 flops    13 x     5 x   320         618807321600       0.0%    100.0%      0.0%
 flops    13 x    20 x   320         634495180800       0.0%    100.0%      0.0%
 flops    20 x    13 x   320         634571059200       0.0%    100.0%      0.0%
 flops    13 x    13 x   320         658829383680       0.0%    100.0%      0.0%
 flops    20 x     5 x   320         689384448000       0.0%    100.0%      0.0%
 flops     5 x    20 x   320         690551808000       0.0%    100.0%      0.0%
 flops    20 x    20 x   320        2735824896000       0.0%    100.0%      0.0%
 flops inhomo. stacks                           0       0.0%      0.0%      0.0%
 flops total                        10.193311E+12       0.0%    100.0%      0.0%
 flops max/rank                    165.850620E+09       0.0%    100.0%      0.0%
 matmuls inhomo. stacks                         0       0.0%      0.0%      0.0%
 matmuls total                          146585760       0.0%    100.0%      0.0%
 number of processed stacks                389120       0.0%    100.0%      0.0%
 average stack size                                     0.0     376.7       0.0
 marketing flops                    28.926145E+12
 -------------------------------------------------------------------------------
 # multiplications                             76
 max memory usage/rank               1.866211E+09
 # max total images/rank                        1
 # max 3D layers                                1
 # MPI messages exchanged                   68096
 MPI messages size (bytes):
  total size                       204.500730E+09
  min size                           2.762496E+06
  max size                           3.077120E+06
  average size                       3.003124E+06
 MPI breakdown and total messages size (bytes):
             size <=      128                   0                        0
       128 < size <=     8192                   0                        0
      8192 < size <=    32768                   0                        0
     32768 < size <=   131072                   0                        0
    131072 < size <=  4194304               68096             204500800000
   4194304 < size <= 16777216                   0                        0
  16777216 < size                               0                        0
 -------------------------------------------------------------------------------
 -                                                                             -
 -                      DBCSR MESSAGE PASSING PERFORMANCE                      -
 -                                                                             -
 -------------------------------------------------------------------------------
 ROUTINE             CALLS      AVE VOLUME [Bytes]
 MP_Bcast               28                     12.
 MP_Allreduce          606                     10.
 MP_Alltoall          2128                1984318.
 MP_ISend             2432                1329597.
 MP_IRecv             2432                1310413.
 -------------------------------------------------------------------------------

 -------------------------------------------------------------------------------
 -                                                                             -
 -                                DBM STATISTICS                               -
 -                                                                             -
 -------------------------------------------------------------------------------
    M  x    N  x    K                                          COUNT     PERCENT
 -------------------------------------------------------------------------------

 -------------------------------------------------------------------------------
 -                                                                             -
 -                                GRID STATISTICS                              -
 -                                                                             -
 -------------------------------------------------------------------------------
 LP    KERNEL             BACKEND                              COUNT     PERCENT
 3     collocate general  REF                               52852984      18.92%
 3     integrate general  REF                               52215534      18.69%
 2     collocate general  REF                               49553900      17.74%
 2     integrate general  REF                               48901875      17.50%
 4     collocate general  REF                               37182088      13.31%
 4     integrate general  REF                               36692850      13.13%
 6     integrate general  REF                                 695434       0.25%
 5     integrate general  REF                                 652025       0.23%
 7     integrate general  REF                                 489238       0.18%
 0     collocate general  REF                                 115968       0.04%
 0     integrate general  REF                                  57984       0.02%
 -------------------------------------------------------------------------------

 MEMORY| Estimated peak process memory [MiB]                                2102

 -------------------------------------------------------------------------------
 ----                             MULTIGRID INFO                            ----
 -------------------------------------------------------------------------------
 count for grid        1:         730946          cutoff [a.u.]          200.00
 count for grid        2:         806942          cutoff [a.u.]           66.67
 count for grid        3:         741005          cutoff [a.u.]           22.22
 count for grid        4:         830951          cutoff [a.u.]            7.41
 total gridlevel count  :        3109844

 -------------------------------------------------------------------------------
 -                                                                             -
 -                         MESSAGE PASSING PERFORMANCE                         -
 -                                                                             -
 -------------------------------------------------------------------------------

 ROUTINE             CALLS      AVE VOLUME [Bytes]
 MP_Group                4
 MP_Bcast              252                2342720.
 MP_Allreduce         1310                   1910.
 MP_Sync                79
 MP_Alltoall          1688               13764294.
 MP_SendRecv           252                  14298.
 MP_ISendRecv        19152                 113680.
 MP_Wait             42868
 MP_ISend            22176                 340212.
 MP_IRecv            22176                 340212.
 MP_Recv               308                2460160.
 MP_Write_All            3                1540656.
 -------------------------------------------------------------------------------


 -------------------------------------------------------------------------------
 -                                                                             -
 -                           R E F E R E N C E S                               -
 -                                                                             -
 -------------------------------------------------------------------------------
 
 CP2K version 2022.1, the CP2K developers group (2022).
 CP2K is freely available from https://www.cp2k.org/ .

 Kuehne,Thomas D.; Iannuzzi,Marcella; Del Ben,Mauro;
 Rybkin,Vladimir V.; Seewald,Patrick; Stein,Frederick; Laino,Teodoro;
 Khaliullin,Rustam Z.; Schuett,Ole; Schiffmann,Florian; Golze,Dorothea;
 Wilhelm,Jan; Chulkov,Sergey; Bani-Hashemian,Mohammad Hossein;
 Weber,Valery; Borstnik,Urban; Taillefumier,Mathieu;
 Jakobovits,Alice Shoshana; Lazzaro,Alfio; Pabst,Hans; Mueller,Tiziano;
 Schade,Robert; Guidon,Manuel; Andermatt,Samuel; Holmberg,Nico;
 Schenter,Gregory K.; Hehn,Anna; Bussy,Augustin; Belleflamme,Fabian;
 Tabacchi,Gloria; Gloess,Andreas; Lass,Michael; Bethune,Iain;
 Mundy,Christopher J.; Plessl,Christian; Watkins,Matt;
 VandeVondele,Joost; Krack,Matthias; Hutter,Juerg. 
 The Journal of Chemical Physics, 152 (19), (2020). 
 CP2K: An electronic structure and molecular dynamics software package -
 Quickstep: Efficient and accurate electronic structure calculations.
 https://doi.org/10.1063/5.0007045

 Goerigk, Lars; Hansen, Andreas; Bauer, Christoph; Ehrlich, Stephan;
 Najibi, Asim; Grimme, Stefan. , 19 (48), (2017). 
 A look at the density functional theory zoo with the advanced GMTKN55 database
 for general main group thermochemistry, kinetics and noncovalent interactions.
 https://doi.org/10.1039/C7CP04913G

 Schuett, Ole; Messmer, Peter; Hutter, Juerg; VandeVondele, Joost. 
 Electronic Structure Calculations on Graphics Processing Units, John
 Wiley & Sons, Ltd, 173-190 (2016). 
 GPU-Accelerated Sparse Matrix-Matrix Multiplication for
 Linear Scaling Density Functional Theory.
 https://doi.org/10.1002/9781118670712.ch8

 Heinecke, A; Henry, G; Hutchinson, M; Pabst, H. 
 Proceedings of Intl. Supercomputing Conference, 981-991 (2016). 
 LIBXSMM: Accelerating Small Matrix Multiplications
 by Runtime Code Generation.
 https://doi.org/10.1109/SC.2016.83

 Borstnik, U; VandeVondele, J; Weber, V; Hutter, J. 
 PARALLEL COMPUTING, 40 (5-6), 47-58 (2014). 
 Sparse matrix multiplication: The distributed block-compressed sparse
 row library.
 https://doi.org/10.1016/j.parco.2014.03.012

 Hutter, J; Iannuzzi, M; Schiffmann, F; VandeVondele, J. 
 WIREs Comput Mol Sci., 4 (1), 15-25 (2014). 
 CP2K: atomistic simulations of condensed matter systems.
 https://doi.org/10.1002/wcms.1159

 Marek, A; Blum, V; Johanni, R; Havu, V; Lang, B; Auckenthaler, T;
 Heinecke, A; Bungartz, H; Lederer, H. 
 Journal of Physics: Condensed Matter, 26 (21), (2014). 
 The ELPA library: scalable parallel eigenvalue solutions for
 electronic structure
 theory and computational science.
 https://doi.org/10.1088/0953-8984/26/21/213201

 Grimme, S; Ehrlich, S; Goerigk, L. 
 JOURNAL OF COMPUTATIONAL CHEMISTRY, 32, 1456 (2011). 
 Effect of the damping function in dispersion corrected density functional theory.
 https://doi.org/10.1002/jcc.21759

 Grimme, S; Antony, J; Ehrlich, S; Krieg, H. 
 JOURNAL OF CHEMICAL PHYSICS, 132 (15), 154104 (2010). 
 A consistent and accurate ab initio parametrization of density
 functional dispersion correction (DFT-D) for the 94 elements H-Pu.
 https://doi.org/10.1063/1.3382344

 VandeVondele, J; Hutter, J. 
 JOURNAL OF CHEMICAL PHYSICS, 127 (11), 114105 (2007). 
 Gaussian basis sets for accurate calculations on molecular systems in
 gas and condensed phases.
 https://doi.org/10.1063/1.2770708

 Krack, M. 
 THEORETICAL CHEMISTRY ACCOUNTS, 114 (1-3), 145-152 (2005). 
 Pseudopotentials for H to Kr optimized for gradient-corrected
 exchange-correlation functionals.
 https://doi.org/10.1007/s00214-005-0655-y

 VandeVondele, J; Krack, M; Mohamed, F; Parrinello, M; Chassaing, T;
 Hutter, J. COMPUTER PHYSICS COMMUNICATIONS, 167 (2), 103-128 (2005). 
 QUICKSTEP: Fast and accurate density functional calculations using a
 mixed Gaussian and plane waves approach.
 https://doi.org/10.1016/j.cpc.2004.12.014

 Frigo, M; Johnson, SG. 
 PROCEEDINGS OF THE IEEE, 93 (2), 216-231 (2005). 
 The design and implementation of FFTW3.
 https://doi.org/10.1109/JPROC.2004.840301

 Hartwigsen, C; Goedecker, S; Hutter, J. 
 PHYSICAL REVIEW B, 58 (7), 3641-3662 (1998). 
 Relativistic separable dual-space Gaussian pseudopotentials from H to Rn.
 https://doi.org/10.1103/PhysRevB.58.3641

 Lippert, G; Hutter, J; Parrinello, M. 
 MOLECULAR PHYSICS, 92 (3), 477-487 (1997). 
 A hybrid Gaussian and plane wave density functional scheme.
 https://doi.org/10.1080/002689797170220

 Perdew, JP; Burke, K; Ernzerhof, M. 
 PHYSICAL REVIEW LETTERS, 77 (18), 3865-3868 (1996). 
 Generalized gradient approximation made simple.
 https://doi.org/10.1103/PhysRevLett.77.3865

 Goedecker, S; Teter, M; Hutter, J. 
 PHYSICAL REVIEW B, 54 (3), 1703-1710 (1996). 
 Separable dual-space Gaussian pseudopotentials.
 https://doi.org/10.1103/PhysRevB.54.1703


 -------------------------------------------------------------------------------
 -                                                                             -
 -                                T I M I N G                                  -
 -                                                                             -
 -------------------------------------------------------------------------------
 SUBROUTINE                       CALLS  ASD         SELF TIME        TOTAL TIME
                                MAXIMUM       AVERAGE  MAXIMUM  AVERAGE  MAXIMUM
 CP2K                                 1  1.0    0.025    0.035  899.473  899.475
 qs_forces                            1  2.0    0.002    0.003  899.064  899.066
 qs_energies                          1  3.0    0.000    0.000  886.592  886.604
 scf_env_do_scf                       1  4.0    0.000    0.000  878.323  878.573
 scf_env_do_scf_inner_loop           75  5.0    0.004    0.012  878.323  878.573
 qs_scf_new_mos                      75  6.0    0.004    0.014  357.695  358.266
 eigensolver                         75  7.0    0.007    0.010  332.218  332.591
 rebuild_ks_matrix                   76  7.0    0.000    0.000  278.208  278.260
 qs_ks_build_kohn_sham_matrix        76  8.0    0.012    0.014  278.208  278.259
 qs_ks_update_qs_env                 75  6.0    0.001    0.001  270.227  270.274
 qs_rho_update_rho_low               76  6.0    0.001    0.001  237.137  237.164
 calculate_rho_elec                  76  7.0    0.177    0.209  237.136  237.164
 sum_up_and_integrate                76  9.0    0.323    0.422  233.703  233.761
 integrate_v_rspace                  76 10.0    0.003    0.003  233.380  233.484
 grid_collocate_task_list            76  8.0  208.574  213.829  208.574  213.829
 grid_integrate_task_list            76 11.0  203.447  208.755  203.447  208.755
 cp_fm_diag_elpa                     75  8.0    0.001    0.001  194.902  195.375
 cp_fm_diag_elpa_base                75  9.0  191.926  192.677  194.592  194.676
 cp_fm_triangular_multiply          225  8.0  134.541  136.256  134.541  136.256
 pw_transfer                       1520 10.9    0.108    0.158   41.829   42.930
 fft_wrap_pw1pw2                   1368 12.0    0.013    0.018   41.351   42.411
 rs_pw_transfer                     612 10.5    0.007    0.008   37.132   41.566
 fft_wrap_pw1pw2_200                912 13.3    3.735    4.064   39.862   40.711
 qs_vxc_create                       76  9.0    0.002    0.003   39.167   39.393
 xc_vxc_pw_create                    76 10.0    0.693    0.740   39.165   39.391
 fft3d_ps                          1368 14.0   15.116   17.014   30.477   31.822
 density_rs2pw                       76  8.0    0.005    0.006   26.176   30.782
 xc_pw_derive                       456 12.0    0.008    0.009   24.911   26.183
 xc_rho_set_and_dset_create          76 11.0    0.371    0.415   21.070   22.498
 potential_pw2rs                     76 11.0    0.028    0.034   22.246   22.326
 mp_waitany                       22176 12.4   16.167   21.079   16.167   21.079
 cp_dbcsr_plus_fm_fm_t_native        76  8.0    0.004    0.007   18.569   19.354
 calculate_dm_sparse                 75  7.0    0.023    0.030   18.613   19.343
 rs_pw_transfer_RS2PW_200            78 10.0    4.949    5.634   14.607   18.880
 -------------------------------------------------------------------------------

 The number of warnings for this run is : 1
 
 -------------------------------------------------------------------------------
  **** **** ******  **  PROGRAM ENDED AT                 2023-11-26 21:31:30.894
 ***** ** ***  *** **   PROGRAM RAN ON                                     cu054
 **    ****   ******    PROGRAM RAN BY                                     jxzhu
 ***** **    ** ** **   PROGRAM PROCESS ID                                 20431
  **** **  *******  **  PROGRAM STOPPED IN /public/home/jxzhu/tmp_calc/af2075565
                                           805657d94fa4669dad6f4b174b0a4fb/calc/
                                           001500.000/pbc
