 DBCSR| CPU Multiplication driver                                           XSMM
 DBCSR| Multrec recursion limit                                              512
 DBCSR| Multiplication stack size                                           1000
 DBCSR| Maximum elements for images                                    UNLIMITED
 DBCSR| Multiplicative factor virtual images                                   1
 DBCSR| Use multiplication densification                                       T
 DBCSR| Multiplication size stacks                                             3
 DBCSR| Number of 3D layers                                               SINGLE
 DBCSR| Use MPI memory allocation                                              T
 DBCSR| Use RMA algorithm                                                      F
 DBCSR| Use Communication thread                                               T
 DBCSR| Communication thread load                                             87


  **** **** ******  **  PROGRAM STARTED AT               2024-11-01 22:42:31.879
 ***** ** ***  *** **   PROGRAM STARTED ON                               c53-012
 **    ****   ******    PROGRAM STARTED BY                                 jxzhu
 ***** **    ** ** **   PROGRAM PROCESS ID                                260362
  **** **  *******  **  PROGRAM STARTED IN /data/jxzhu/nnp/dp_workdir/d1f764b96e
                                           9a01b62c3e35b0c4f5198f3ba3ed59/calc.0
                                           00/task.001.000001

 CP2K| version string:                                          CP2K version 7.1
 CP2K| source code revision number:                                  git:e635599
 CP2K| cp2kflags: libint fftw3 libxc elpa parallel mpi3 scalapack xsmm spglib   
 CP2K| is freely available from                            https://www.cp2k.org/
 CP2K| Program compiled at                           Mon Mar 8 20:53:19 CST 2021
 CP2K| Program compiled on                                                 mgt01
 CP2K| Program compiled for                                                local
 CP2K| Data directory path                                    /data/jxzhu/basis/
 CP2K| Input file name                                                 input.inp

 GLOBAL| Force Environment number                                              1
 GLOBAL| Basis set file name                                        BASIS_MOLOPT
 GLOBAL| Potential file name                                      GTH_POTENTIALS
 GLOBAL| MM Potential file name                                     MM_POTENTIAL
 GLOBAL| Coordinate file name                                          coord.xyz
 GLOBAL| Method name                                                        CP2K
 GLOBAL| Project name                                                       cp2k
 GLOBAL| Preferred FFT library                                             FFTW3
 GLOBAL| Preferred diagonalization lib.                                     ELPA
 GLOBAL| Run type                                                   ENERGY_FORCE
 GLOBAL| All-to-all communication in single precision                          F
 GLOBAL| FFTs using library dependent lengths                                  F
 GLOBAL| Global print level                                               MEDIUM
 GLOBAL| MPI I/O enabled                                                       T
 GLOBAL| Total number of message passing processes                            32
 GLOBAL| Number of threads for this process                                    1
 GLOBAL| This output is from process                                           0
 GLOBAL| CPU model name                Intel(R) Xeon(R) Gold 6226R CPU @ 2.90GHz
 GLOBAL| CPUID                                                              1003
 GLOBAL| Compiled for CPUID                                                 1002
 HINT in environment.F:814 The compiler target flags (x86_avx2) used to build
   this binary cannot exploit all extensions of this CPU model (x86_avx512).
   Consider compiler target flags as part of FCFLAGS and CFLAGS (ARCH file).

 MEMORY| system memory details [Kb]
 MEMORY|                        rank 0           min           max       average
 MEMORY| MemTotal            196472820     196472820     196472820     196472820
 MEMORY| MemFree             182929008     182929008     182929008     182929008
 MEMORY| Buffers                  2196          2196          2196          2196
 MEMORY| Cached                 799260        799260        799260        799260
 MEMORY| Slab                   431436        431436        431436        431436
 MEMORY| SReclaimable           136520        136520        136520        136520
 MEMORY| MemLikelyFree       183866984     183866984     183866984     183866984


 *** Fundamental physical constants (SI units) ***

 *** Literature: B. J. Mohr and B. N. Taylor,
 ***             CODATA recommended values of the fundamental physical
 ***             constants: 2006, Web Version 5.1
 ***             http://physics.nist.gov/constants

 Speed of light in vacuum [m/s]                             2.99792458000000E+08
 Magnetic constant or permeability of vacuum [N/A**2]       1.25663706143592E-06
 Electric constant or permittivity of vacuum [F/m]          8.85418781762039E-12
 Planck constant (h) [J*s]                                  6.62606896000000E-34
 Planck constant (h-bar) [J*s]                              1.05457162825177E-34
 Elementary charge [C]                                      1.60217648700000E-19
 Electron mass [kg]                                         9.10938215000000E-31
 Electron g factor [ ]                                     -2.00231930436220E+00
 Proton mass [kg]                                           1.67262163700000E-27
 Fine-structure constant                                    7.29735253760000E-03
 Rydberg constant [1/m]                                     1.09737315685270E+07
 Avogadro constant [1/mol]                                  6.02214179000000E+23
 Boltzmann constant [J/K]                                   1.38065040000000E-23
 Atomic mass unit [kg]                                      1.66053878200000E-27
 Bohr radius [m]                                            5.29177208590000E-11

 *** Conversion factors ***

 [u] -> [a.u.]                                              1.82288848426455E+03
 [Angstrom] -> [Bohr] = [a.u.]                              1.88972613288564E+00
 [a.u.] = [Bohr] -> [Angstrom]                              5.29177208590000E-01
 [a.u.] -> [s]                                              2.41888432650478E-17
 [a.u.] -> [fs]                                             2.41888432650478E-02
 [a.u.] -> [J]                                              4.35974393937059E-18
 [a.u.] -> [N]                                              8.23872205491840E-08
 [a.u.] -> [K]                                              3.15774647902944E+05
 [a.u.] -> [kJ/mol]                                         2.62549961709828E+03
 [a.u.] -> [kcal/mol]                                       6.27509468713739E+02
 [a.u.] -> [Pa]                                             2.94210107994716E+13
 [a.u.] -> [bar]                                            2.94210107994716E+08
 [a.u.] -> [atm]                                            2.90362800883016E+08
 [a.u.] -> [eV]                                             2.72113838565563E+01
 [a.u.] -> [Hz]                                             6.57968392072181E+15
 [a.u.] -> [1/cm] (wave numbers)                            2.19474631370540E+05
 [a.u./Bohr**2] -> [1/cm]                                   5.14048714338585E+03
 

 CELL_TOP| Volume [angstrom^3]:                                         4542.849
 CELL_TOP| Vector a [angstrom    11.246     0.000     0.000    |a| =      11.246
 CELL_TOP| Vector b [angstrom     0.000     9.739     0.000    |b| =       9.739
 CELL_TOP| Vector c [angstrom     0.000     0.000    41.478    |c| =      41.478
 CELL_TOP| Angle (b,c), alpha [degree]:                                   90.000
 CELL_TOP| Angle (a,c), beta  [degree]:                                   90.000
 CELL_TOP| Angle (a,b), gamma [degree]:                                   90.000
 CELL_TOP| Numerically orthorhombic:                                         YES

 GENERATE|  Preliminary Number of Bonds generated:                             0
 GENERATE|  Achieved consistency in connectivity generation.

 CELL| Volume [angstrom^3]:                                             4542.849
 CELL| Vector a [angstrom]:      11.246     0.000     0.000    |a| =      11.246
 CELL| Vector b [angstrom]:       0.000     9.739     0.000    |b| =       9.739
 CELL| Vector c [angstrom]:       0.000     0.000    41.478    |c| =      41.478
 CELL| Angle (b,c), alpha [degree]:                                       90.000
 CELL| Angle (a,c), beta  [degree]:                                       90.000
 CELL| Angle (a,b), gamma [degree]:                                       90.000
 CELL| Numerically orthorhombic:                                             YES

 CELL_REF| Volume [angstrom^3]:                                         4542.849
 CELL_REF| Vector a [angstrom    11.246     0.000     0.000    |a| =      11.246
 CELL_REF| Vector b [angstrom     0.000     9.739     0.000    |b| =       9.739
 CELL_REF| Vector c [angstrom     0.000     0.000    41.478    |c| =      41.478
 CELL_REF| Angle (b,c), alpha [degree]:                                   90.000
 CELL_REF| Angle (a,c), beta  [degree]:                                   90.000
 CELL_REF| Angle (a,b), gamma [degree]:                                   90.000
 CELL_REF| Numerically orthorhombic:                                         YES

 *******************************************************************************
 *******************************************************************************
 **                                                                           **
 **     #####                         ##              ##                      **
 **    ##   ##            ##          ##              ##                      **
 **   ##     ##                       ##            ######                    **
 **   ##     ##  ##   ##  ##   #####  ##  ##   ####   ##    #####    #####    **
 **   ##     ##  ##   ##  ##  ##      ## ##   ##      ##   ##   ##  ##   ##   **
 **   ##  ## ##  ##   ##  ##  ##      ####     ###    ##   ######   ######    **
 **    ##  ###   ##   ##  ##  ##      ## ##      ##   ##   ##       ##        **
 **     #######   #####   ##   #####  ##  ##  ####    ##    #####   ##        **
 **           ##                                                    ##        **
 **                                                                           **
 **                                                ... make the atoms dance   **
 **                                                                           **
 **            Copyright (C) by CP2K developers group (2000 - 2019)           **
 **                                                                           **
 *******************************************************************************

 DFT| Spin restricted Kohn-Sham (RKS) calculation                            RKS
 DFT| Multiplicity                                                             1
 DFT| Number of spin states                                                    1
 DFT| Charge                                                                   0
 DFT| Self-interaction correction (SIC)                                       NO
 DFT| Cutoffs: density                                              1.000000E-10
 DFT|          gradient                                             1.000000E-10
 DFT|          tau                                                  1.000000E-10
 DFT|          cutoff_smoothing_range                               0.000000E+00
 DFT| XC density smoothing                                                  NONE
 DFT| XC derivatives                                                          PW
 FUNCTIONAL| ROUTINE=NEW
 FUNCTIONAL| PBE:
 FUNCTIONAL| J.P.Perdew, K.Burke, M.Ernzerhof, Phys. Rev. Letter, vol. 77, n 18,
 FUNCTIONAL|  pp. 3865-3868, (1996){spin unpolarized}                           
 vdW POTENTIAL|                                                   Pair Potential
 vdW POTENTIAL|          DFT-D3 (Version 3.1)
 vdW POTENTIAL|          Potential Form: S. Grimme et al, JCP 132: 154104 (2010)
 vdW POTENTIAL|          Zero Damping
 vdW POTENTIAL|          Cutoff Radius [Bohr]:                             20.00
 vdW POTENTIAL|          s6 Scaling Factor:                               1.0000
 vdW POTENTIAL|          sr6 Scaling Factor:                              1.2170
 vdW POTENTIAL|          s8 Scaling Factor:                               0.7220
 vdW POTENTIAL|          Cutoff for CN calculation:                   0.1000E-05

 QS| Method:                                                                 GPW
 QS| Density plane wave grid type                        NON-SPHERICAL FULLSPACE
 QS| Number of grid levels:                                                    4
 QS| Density cutoff [a.u.]:                                                200.0
 QS| Multi grid cutoff [a.u.]: 1) grid level                               200.0
 QS|                           2) grid level                                66.7
 QS|                           3) grid level                                22.2
 QS|                           4) grid level                                 7.4
 QS| Grid level progression factor:                                          3.0
 QS| Relative density cutoff [a.u.]:                                        20.0
 QS| Consistent realspace mapping and integration 
 QS| Interaction thresholds: eps_pgf_orb:                                3.2E-07
 QS|                         eps_filter_matrix:                          0.0E+00
 QS|                         eps_core_charge:                            1.0E-15
 QS|                         eps_rho_gspace:                             1.0E-13
 QS|                         eps_rho_rspace:                             1.0E-13
 QS|                         eps_gvg_rspace:                             3.2E-07
 QS|                         eps_ppl:                                    1.0E-02
 QS|                         eps_ppnl:                                   3.2E-09


 ATOMIC KIND INFORMATION

  1. Atomic kind: Pt                                    Number of atoms:      96

     Orbital Basis Set                      DZVP-A5-Q10-323-MOL-T1-DERIVED_SET-1

       Number of orbital shell sets:                                           1
       Number of orbital shells:                                               6
       Number of primitive Cartesian functions:                                5
       Number of Cartesian basis functions:                                   23
       Number of spherical basis functions:                                   20
       Norm type:                                                              2

       Normalised Cartesian orbitals:

                        Set   Shell   Orbital            Exponent    Coefficient

                          1       1    2s                2.521825       0.177473
                                                         1.453920      -0.063399
                                                         0.614053      -0.407089
                                                         0.232656       0.262254
                                                         0.074788       0.047371

                          1       2    3s                2.521825      -0.049056
                                                         1.453920       0.044904
                                                         0.614053      -0.009756
                                                         0.232656      -0.144709
                                                         0.074788       0.144085

                          1       3    3px               2.521825      -0.317572
                                                         1.453920       0.534826
                                                         0.614053      -0.489458
                                                         0.232656       0.245631
                                                         0.074788       0.018221
                          1       3    3py               2.521825      -0.317572
                                                         1.453920       0.534826
                                                         0.614053      -0.489458
                                                         0.232656       0.245631
                                                         0.074788       0.018221
                          1       3    3pz               2.521825      -0.317572
                                                         1.453920       0.534826
                                                         0.614053      -0.489458
                                                         0.232656       0.245631
                                                         0.074788       0.018221

                          1       4    4dx2              2.521825       3.008522
                                                         1.453920      -1.224251
                                                         0.614053       0.225691
                                                         0.232656       0.125144
                                                         0.074788      -0.015348
                          1       4    4dxy              2.521825       5.210912
                                                         1.453920      -2.120465
                                                         0.614053       0.390909
                                                         0.232656       0.216756
                                                         0.074788      -0.026584
                          1       4    4dxz              2.521825       5.210912
                                                         1.453920      -2.120465
                                                         0.614053       0.390909
                                                         0.232656       0.216756
                                                         0.074788      -0.026584
                          1       4    4dy2              2.521825       3.008522
                                                         1.453920      -1.224251
                                                         0.614053       0.225691
                                                         0.232656       0.125144
                                                         0.074788      -0.015348
                          1       4    4dyz              2.521825       5.210912
                                                         1.453920      -2.120465
                                                         0.614053       0.390909
                                                         0.232656       0.216756
                                                         0.074788      -0.026584
                          1       4    4dz2              2.521825       3.008522
                                                         1.453920      -1.224251
                                                         0.614053       0.225691
                                                         0.232656       0.125144
                                                         0.074788      -0.015348

                          1       5    5dx2              2.521825       0.698026
                                                         1.453920      -1.511486
                                                         0.614053      -0.335394
                                                         0.232656      -0.025564
                                                         0.074788      -0.002699
                          1       5    5dxy              2.521825       1.209017
                                                         1.453920      -2.617970
                                                         0.614053      -0.580920
                                                         0.232656      -0.044277
                                                         0.074788      -0.004674
                          1       5    5dxz              2.521825       1.209017
                                                         1.453920      -2.617970
                                                         0.614053      -0.580920
                                                         0.232656      -0.044277
                                                         0.074788      -0.004674
                          1       5    5dy2              2.521825       0.698026
                                                         1.453920      -1.511486
                                                         0.614053      -0.335394
                                                         0.232656      -0.025564
                                                         0.074788      -0.002699
                          1       5    5dyz              2.521825       1.209017
                                                         1.453920      -2.617970
                                                         0.614053      -0.580920
                                                         0.232656      -0.044277
                                                         0.074788      -0.004674
                          1       5    5dz2              2.521825       0.698026
                                                         1.453920      -1.511486
                                                         0.614053      -0.335394
                                                         0.232656      -0.025564
                                                         0.074788      -0.002699

                          1       6    6dx2              2.521825       0.831079
                                                         1.453920      -0.709226
                                                         0.614053      -0.137351
                                                         0.232656       0.068642
                                                         0.074788       0.011745
                          1       6    6dxy              2.521825       1.439472
                                                         1.453920      -1.228415
                                                         0.614053      -0.237899
                                                         0.232656       0.118891
                                                         0.074788       0.020343
                          1       6    6dxz              2.521825       1.439472
                                                         1.453920      -1.228415
                                                         0.614053      -0.237899
                                                         0.232656       0.118891
                                                         0.074788       0.020343
                          1       6    6dy2              2.521825       0.831079
                                                         1.453920      -0.709226
                                                         0.614053      -0.137351
                                                         0.232656       0.068642
                                                         0.074788       0.011745
                          1       6    6dyz              2.521825       1.439472
                                                         1.453920      -1.228415
                                                         0.614053      -0.237899
                                                         0.232656       0.118891
                                                         0.074788       0.020343
                          1       6    6dz2              2.521825       0.831079
                                                         1.453920      -0.709226
                                                         0.614053      -0.137351
                                                         0.232656       0.068642
                                                         0.074788       0.011745

     GTH Potential information for                                   GTH-PBE-q10

       Description:                       Goedecker-Teter-Hutter pseudopotential
                                           Goedecker et al., PRB 54, 1703 (1996)
                                          Hartwigsen et al., PRB 58, 3641 (1998)
                                                      Krack, TCA 114, 145 (2005)

       Gaussian exponent of the core charge distribution:               1.317676
       Electronic configuration (s p d ...):                           1   0   9

       Parameters of the local part of the GTH pseudopotential:

                          rloc        C1          C2          C3          C4
                        0.616000   11.313635

       Parameters of the non-local part of the GTH pseudopotential:

                   l      r(l)      h(i,j,l)

                   0    0.550904    4.733491   -1.784594
                                   -1.784594    2.303901
                   1    0.674138    2.534798   -1.778066
                                   -1.778066    2.103836
                   2    0.457392   -7.264011    2.558665
                                    2.558665   -2.901253

  2. Atomic kind: O                                     Number of atoms:       1

     Orbital Basis Set                                        DZVP-MOLOPT-SR-GTH

       Number of orbital shell sets:                                           1
       Number of orbital shells:                                               5
       Number of primitive Cartesian functions:                                5
       Number of Cartesian basis functions:                                   14
       Number of spherical basis functions:                                   13
       Norm type:                                                              2

       Normalised Cartesian orbitals:

                        Set   Shell   Orbital            Exponent    Coefficient

                          1       1    2s               10.389228       0.396646
                                                         3.849621       0.208811
                                                         1.388401      -0.301641
                                                         0.496955      -0.274061
                                                         0.162492      -0.033677

                          1       2    3s               10.389228       0.303673
                                                         3.849621       0.240943
                                                         1.388401      -0.313066
                                                         0.496955      -0.043055
                                                         0.162492       0.213991

                          1       3    3px              10.389228      -1.530415
                                                         3.849621      -1.371928
                                                         1.388401      -0.761951
                                                         0.496955      -0.253695
                                                         0.162492      -0.035541
                          1       3    3py              10.389228      -1.530415
                                                         3.849621      -1.371928
                                                         1.388401      -0.761951
                                                         0.496955      -0.253695
                                                         0.162492      -0.035541
                          1       3    3pz              10.389228      -1.530415
                                                         3.849621      -1.371928
                                                         1.388401      -0.761951
                                                         0.496955      -0.253695
                                                         0.162492      -0.035541

                          1       4    4px              10.389228      -0.565392
                                                         3.849621      -0.038231
                                                         1.388401      -0.382373
                                                         0.496955       0.179070
                                                         0.162492       0.122714
                          1       4    4py              10.389228      -0.565392
                                                         3.849621      -0.038231
                                                         1.388401      -0.382373
                                                         0.496955       0.179070
                                                         0.162492       0.122714
                          1       4    4pz              10.389228      -0.565392
                                                         3.849621      -0.038231
                                                         1.388401      -0.382373
                                                         0.496955       0.179070
                                                         0.162492       0.122714

                          1       5    4dx2             10.389228       1.867377
                                                         3.849621       0.670994
                                                         1.388401       1.353441
                                                         0.496955       0.273538
                                                         0.162492       0.006620
                          1       5    4dxy             10.389228       3.234392
                                                         3.849621       1.162195
                                                         1.388401       2.344229
                                                         0.496955       0.473781
                                                         0.162492       0.011466
                          1       5    4dxz             10.389228       3.234392
                                                         3.849621       1.162195
                                                         1.388401       2.344229
                                                         0.496955       0.473781
                                                         0.162492       0.011466
                          1       5    4dy2             10.389228       1.867377
                                                         3.849621       0.670994
                                                         1.388401       1.353441
                                                         0.496955       0.273538
                                                         0.162492       0.006620
                          1       5    4dyz             10.389228       3.234392
                                                         3.849621       1.162195
                                                         1.388401       2.344229
                                                         0.496955       0.473781
                                                         0.162492       0.011466
                          1       5    4dz2             10.389228       1.867377
                                                         3.849621       0.670994
                                                         1.388401       1.353441
                                                         0.496955       0.273538
                                                         0.162492       0.006620

     GTH Potential information for                                    GTH-PBE-q6

       Description:                       Goedecker-Teter-Hutter pseudopotential
                                           Goedecker et al., PRB 54, 1703 (1996)
                                          Hartwigsen et al., PRB 58, 3641 (1998)
                                                      Krack, TCA 114, 145 (2005)

       Gaussian exponent of the core charge distribution:               8.360253
       Electronic configuration (s p d ...):                               2   4

       Parameters of the local part of the GTH pseudopotential:

                          rloc        C1          C2          C3          C4
                        0.244554  -16.667215    2.487311

       Parameters of the non-local part of the GTH pseudopotential:

                   l      r(l)      h(i,j,l)

                   0    0.220956   18.337458
                   1    0.211332

  3. Atomic kind: H                                     Number of atoms:       2

     Orbital Basis Set                                        DZVP-MOLOPT-SR-GTH

       Number of orbital shell sets:                                           1
       Number of orbital shells:                                               3
       Number of primitive Cartesian functions:                                5
       Number of Cartesian basis functions:                                    5
       Number of spherical basis functions:                                    5
       Norm type:                                                              2

       Normalised Cartesian orbitals:

                        Set   Shell   Orbital            Exponent    Coefficient

                          1       1    2s               10.068468      -0.133023
                                                         2.680223      -0.177618
                                                         0.791502      -0.258419
                                                         0.239116      -0.107525
                                                         0.082193      -0.014019

                          1       2    3s               10.068468       0.344673
                                                         2.680223       1.819821
                                                         0.791502      -0.999069
                                                         0.239116       0.017430
                                                         0.082193       0.082660

                          1       3    3px              10.068468       0.155326
                                                         2.680223       0.367157
                                                         0.791502       0.311480
                                                         0.239116       0.080105
                                                         0.082193       0.033440
                          1       3    3py              10.068468       0.155326
                                                         2.680223       0.367157
                                                         0.791502       0.311480
                                                         0.239116       0.080105
                                                         0.082193       0.033440
                          1       3    3pz              10.068468       0.155326
                                                         2.680223       0.367157
                                                         0.791502       0.311480
                                                         0.239116       0.080105
                                                         0.082193       0.033440

     GTH Potential information for                                    GTH-PBE-q1

       Description:                       Goedecker-Teter-Hutter pseudopotential
                                           Goedecker et al., PRB 54, 1703 (1996)
                                          Hartwigsen et al., PRB 58, 3641 (1998)
                                                      Krack, TCA 114, 145 (2005)

       Gaussian exponent of the core charge distribution:              12.500000
       Electronic configuration (s p d ...):                                   1

       Parameters of the local part of the GTH pseudopotential:

                          rloc        C1          C2          C3          C4
                        0.200000   -4.178900    0.724463


 MOLECULE KIND INFORMATION


 All atoms are their own molecule, skipping detailed information


 TOTAL NUMBERS AND MAXIMUM NUMBERS

  Total number of            - Atomic kinds:                                   3
                             - Atoms:                                         99
                             - Shell sets:                                    99
                             - Shells:                                       587
                             - Primitive Cartesian functions:                495
                             - Cartesian basis functions:                   2232
                             - Spherical basis functions:                   1943

  Maximum angular momentum of- Orbital basis functions:                        2
                             - Local part of the GTH pseudopotential:          2
                             - Non-local part of the GTH pseudopotential:      4


 MODULE QUICKSTEP:  ATOMIC COORDINATES IN angstrom

  Atom  Kind  Element       X           Y           Z          Z(eff)       Mass

       1     1 Pt  78    1.405728    0.811598   15.000000     10.00     195.0840
       2     1 Pt  78    4.217185    0.811598   15.000000     10.00     195.0840
       3     1 Pt  78    7.028641    0.811598   15.000000     10.00     195.0840
       4     1 Pt  78    9.840098    0.811598   15.000000     10.00     195.0840
       5     1 Pt  78    0.000000    3.246390   15.000000     10.00     195.0840
       6     1 Pt  78    2.811457    3.246390   15.000000     10.00     195.0840
       7     1 Pt  78    5.622913    3.246390   15.000000     10.00     195.0840
       8     1 Pt  78    8.434370    3.246390   15.000000     10.00     195.0840
       9     1 Pt  78    1.405728    5.681183   15.000000     10.00     195.0840
      10     1 Pt  78    4.217185    5.681183   15.000000     10.00     195.0840
      11     1 Pt  78    7.028641    5.681183   15.000000     10.00     195.0840
      12     1 Pt  78    9.840098    5.681183   15.000000     10.00     195.0840
      13     1 Pt  78    0.000000    8.115976   15.000000     10.00     195.0840
      14     1 Pt  78    2.811457    8.115976   15.000000     10.00     195.0840
      15     1 Pt  78    5.622913    8.115976   15.000000     10.00     195.0840
      16     1 Pt  78    8.434370    8.115976   15.000000     10.00     195.0840
      17     1 Pt  78    0.000000    1.623195   17.295545     10.00     195.0840
      18     1 Pt  78    2.811457    1.623195   17.295545     10.00     195.0840
      19     1 Pt  78    5.622913    1.623195   17.295545     10.00     195.0840
      20     1 Pt  78    8.434370    1.623195   17.295545     10.00     195.0840
      21     1 Pt  78    1.405728    4.057988   17.295545     10.00     195.0840
      22     1 Pt  78    4.217185    4.057988   17.295545     10.00     195.0840
      23     1 Pt  78    7.028641    4.057988   17.295545     10.00     195.0840
      24     1 Pt  78    9.840098    4.057988   17.295545     10.00     195.0840
      25     1 Pt  78    0.000000    6.492781   17.295545     10.00     195.0840
      26     1 Pt  78    2.811457    6.492781   17.295545     10.00     195.0840
      27     1 Pt  78    5.622913    6.492781   17.295545     10.00     195.0840
      28     1 Pt  78    8.434370    6.492781   17.295545     10.00     195.0840
      29     1 Pt  78    1.405728    8.927574   17.295545     10.00     195.0840
      30     1 Pt  78    4.217185    8.927574   17.295545     10.00     195.0840
      31     1 Pt  78    7.028641    8.927574   17.295545     10.00     195.0840
      32     1 Pt  78    9.840098    8.927574   17.295545     10.00     195.0840
      33     1 Pt  78    0.000000    0.000000   19.591089     10.00     195.0840
      34     1 Pt  78    2.811457    0.000000   19.591089     10.00     195.0840
      35     1 Pt  78    5.622913    0.000000   19.591089     10.00     195.0840
      36     1 Pt  78    8.434370    0.000000   19.591089     10.00     195.0840
      37     1 Pt  78    1.405728    2.434793   19.591089     10.00     195.0840
      38     1 Pt  78    4.217185    2.434793   19.591089     10.00     195.0840
      39     1 Pt  78    7.028641    2.434793   19.591089     10.00     195.0840
      40     1 Pt  78    9.840098    2.434793   19.591089     10.00     195.0840
      41     1 Pt  78    0.000000    4.869586   19.591089     10.00     195.0840
      42     1 Pt  78    2.811457    4.869586   19.591089     10.00     195.0840
      43     1 Pt  78    5.622913    4.869586   19.591089     10.00     195.0840
      44     1 Pt  78    8.434370    4.869586   19.591089     10.00     195.0840
      45     1 Pt  78    1.405728    7.304378   19.591089     10.00     195.0840
      46     1 Pt  78    4.217185    7.304378   19.591089     10.00     195.0840
      47     1 Pt  78    7.028641    7.304378   19.591089     10.00     195.0840
      48     1 Pt  78    9.840098    7.304378   19.591089     10.00     195.0840
      49     1 Pt  78    1.405728    0.811598   21.886634     10.00     195.0840
      50     1 Pt  78    4.217185    0.811598   21.886634     10.00     195.0840
      51     1 Pt  78    7.028641    0.811598   21.886634     10.00     195.0840
      52     1 Pt  78    9.840098    0.811598   21.886634     10.00     195.0840
      53     1 Pt  78    0.000000    3.246390   21.886634     10.00     195.0840
      54     1 Pt  78    2.811457    3.246390   21.886634     10.00     195.0840
      55     1 Pt  78    5.622913    3.246390   21.886634     10.00     195.0840
      56     1 Pt  78    8.434370    3.246390   21.886634     10.00     195.0840
      57     1 Pt  78    1.405728    5.681183   21.886634     10.00     195.0840
      58     1 Pt  78    4.217185    5.681183   21.886634     10.00     195.0840
      59     1 Pt  78    7.028641    5.681183   21.886634     10.00     195.0840
      60     1 Pt  78    9.840098    5.681183   21.886634     10.00     195.0840
      61     1 Pt  78    0.000000    8.115976   21.886634     10.00     195.0840
      62     1 Pt  78    2.811457    8.115976   21.886634     10.00     195.0840
      63     1 Pt  78    5.622913    8.115976   21.886634     10.00     195.0840
      64     1 Pt  78    8.434370    8.115976   21.886634     10.00     195.0840
      65     1 Pt  78    0.000000    1.623195   24.182179     10.00     195.0840
      66     1 Pt  78    2.811457    1.623195   24.182179     10.00     195.0840
      67     1 Pt  78    5.622913    1.623195   24.182179     10.00     195.0840
      68     1 Pt  78    8.434370    1.623195   24.182179     10.00     195.0840
      69     1 Pt  78    1.405728    4.057988   24.182179     10.00     195.0840
      70     1 Pt  78    4.217185    4.057988   24.182179     10.00     195.0840
      71     1 Pt  78    7.028641    4.057988   24.182179     10.00     195.0840
      72     1 Pt  78    9.840098    4.057988   24.182179     10.00     195.0840
      73     1 Pt  78    0.000000    6.492781   24.182179     10.00     195.0840
      74     1 Pt  78    2.811457    6.492781   24.182179     10.00     195.0840
      75     1 Pt  78    5.622913    6.492781   24.182179     10.00     195.0840
      76     1 Pt  78    8.434370    6.492781   24.182179     10.00     195.0840
      77     1 Pt  78    1.405728    8.927574   24.182179     10.00     195.0840
      78     1 Pt  78    4.217185    8.927574   24.182179     10.00     195.0840
      79     1 Pt  78    7.028641    8.927574   24.182179     10.00     195.0840
      80     1 Pt  78    9.840098    8.927574   24.182179     10.00     195.0840
      81     1 Pt  78    0.000000    0.000000   26.477723     10.00     195.0840
      82     1 Pt  78    2.811457    0.000000   26.477723     10.00     195.0840
      83     1 Pt  78    5.622913    0.000000   26.477723     10.00     195.0840
      84     1 Pt  78    8.434370    0.000000   26.477723     10.00     195.0840
      85     1 Pt  78    1.405728    2.434793   26.477723     10.00     195.0840
      86     1 Pt  78    4.217185    2.434793   26.477723     10.00     195.0840
      87     1 Pt  78    7.028641    2.434793   26.477723     10.00     195.0840
      88     1 Pt  78    9.840098    2.434793   26.477723     10.00     195.0840
      89     1 Pt  78    0.000000    4.869586   26.477723     10.00     195.0840
      90     1 Pt  78    2.811457    4.869586   26.477723     10.00     195.0840
      91     1 Pt  78    5.622913    4.869586   26.477723     10.00     195.0840
      92     1 Pt  78    8.434370    4.869586   26.477723     10.00     195.0840
      93     1 Pt  78    1.405728    7.304378   26.477723     10.00     195.0840
      94     1 Pt  78    4.217185    7.304378   26.477723     10.00     195.0840
      95     1 Pt  78    7.028641    7.304378   26.477723     10.00     195.0840
      96     1 Pt  78    9.840098    7.304378   26.477723     10.00     195.0840
      97     2 O    8    5.622913    4.869586   28.177723      6.00      15.9994
      98     3 H    1    5.062566    5.632825   28.381673      1.00       1.0079
      99     3 H    1    5.062566    4.106347   28.381673      1.00       1.0079




 SCF PARAMETERS         Density guess:                                   RESTART
                        --------------------------------------------------------
                        max_scf:                                             500
                        max_scf_history:                                       0
                        max_diis:                                              4
                        --------------------------------------------------------
                        eps_scf:                                        1.00E-06
                        eps_scf_history:                                0.00E+00
                        eps_diis:                                       1.00E-01
                        eps_eigval:                                     1.00E-05
                        --------------------------------------------------------
                        level_shift [a.u.]:                                 0.00
                        added MOs                                       500    0
                        --------------------------------------------------------
                        Mixing method:                            BROYDEN_MIXING
                                                charge density mixing in g-space
                        --------------------------------------------------------
                        Smear method:                                FERMI_DIRAC
                        Electronic temperature [K]:                        300.0
                        Electronic temperature [a.u.]:                  9.50E-04
                        Accuracy threshold:                             1.00E-10
                        --------------------------------------------------------
                        No outer SCF

 PW_GRID| Information for grid number                                          1
 PW_GRID| Grid distributed over                                    32 processors
 PW_GRID| Real space group dimensions                                    32    1
 PW_GRID| the grid is blocked:                                                NO
 PW_GRID| Cutoff [a.u.]                                                    200.0
 PW_GRID| spherical cutoff:                                                   NO
 PW_GRID|   Bounds   1            -67      67                Points:         135
 PW_GRID|   Bounds   2            -60      59                Points:         120
 PW_GRID|   Bounds   3           -250     249                Points:         500
 PW_GRID| Volume element (a.u.^3)  0.3785E-02     Volume (a.u.^3)     30656.6653
 PW_GRID| Grid span                                                    FULLSPACE
 PW_GRID|   Distribution                         Average         Max         Min
 PW_GRID|   G-Vectors                           253125.0      253125      253125
 PW_GRID|   G-Rays                                1875.0        1875        1875
 PW_GRID|   Real Space Points                   253125.0      300000      240000

 PW_GRID| Information for grid number                                          2
 PW_GRID| Number of the reference grid                                         1
 PW_GRID| Grid distributed over                                    32 processors
 PW_GRID| Real space group dimensions                                    32    1
 PW_GRID| the grid is blocked:                                                NO
 PW_GRID| Cutoff [a.u.]                                                     66.7
 PW_GRID| spherical cutoff:                                                   NO
 PW_GRID|   Bounds   1            -40      39                Points:          80
 PW_GRID|   Bounds   2            -36      35                Points:          72
 PW_GRID|   Bounds   3           -150     149                Points:         300
 PW_GRID| Volume element (a.u.^3)  0.1774E-01     Volume (a.u.^3)     30656.6653
 PW_GRID| Grid span                                                    FULLSPACE
 PW_GRID|   Distribution                         Average         Max         Min
 PW_GRID|   G-Vectors                            54000.0       54640       53520
 PW_GRID|   G-Rays                                 675.0         683         669
 PW_GRID|   Real Space Points                    54000.0       64800       43200

 PW_GRID| Information for grid number                                          3
 PW_GRID| Number of the reference grid                                         1
 PW_GRID| Grid distributed over                                    32 processors
 PW_GRID| Real space group dimensions                                    32    1
 PW_GRID| the grid is blocked:                                                NO
 PW_GRID| Cutoff [a.u.]                                                     22.2
 PW_GRID| spherical cutoff:                                                   NO
 PW_GRID|   Bounds   1            -22      22                Points:          45
 PW_GRID|   Bounds   2            -20      19                Points:          40
 PW_GRID|   Bounds   3            -90      89                Points:         180
 PW_GRID| Volume element (a.u.^3)  0.9462E-01     Volume (a.u.^3)     30656.6653
 PW_GRID| Grid span                                                    FULLSPACE
 PW_GRID|   Distribution                         Average         Max         Min
 PW_GRID|   G-Vectors                            10125.0       10260       10035
 PW_GRID|   G-Rays                                 225.0         228         223
 PW_GRID|   Real Space Points                    10125.0       14400        7200

 PW_GRID| Information for grid number                                          4
 PW_GRID| Number of the reference grid                                         1
 PW_GRID| Grid distributed over                                    32 processors
 PW_GRID| Real space group dimensions                                     4    8
 PW_GRID| the grid is blocked:                                                NO
 PW_GRID| Cutoff [a.u.]                                                      7.4
 PW_GRID| spherical cutoff:                                                   NO
 PW_GRID|   Bounds   1            -13      13                Points:          27
 PW_GRID|   Bounds   2            -12      11                Points:          24
 PW_GRID|   Bounds   3            -50      49                Points:         100
 PW_GRID| Volume element (a.u.^3)  0.4731         Volume (a.u.^3)     30656.6653
 PW_GRID| Grid span                                                    FULLSPACE
 PW_GRID|   Distribution                         Average         Max         Min
 PW_GRID|   G-Vectors                             2025.0        2133        1890
 PW_GRID|   G-Rays                                  75.0          79          70
 PW_GRID|   Real Space Points                     2025.0        2100        1800

 POISSON| Solver                                          IMPLICIT (GENERALIZED)
 POISSON| Boundary Condition                                PERIODIC & DIRICHLET
 POISSON| Maximum number of iterations                                        30
 POISSON| Convergence threshold                                         1.00E-08
 POISSON| Dielectric Constant                                              80.00
 POISSON| Relaxation parameter                                          1.00E+00

 RS_GRID| Information for grid number                                          1
 RS_GRID|   Bounds   1            -67      67                Points:         135
 RS_GRID|   Bounds   2            -60      59                Points:         120
 RS_GRID|   Bounds   3           -250     249                Points:         500
 RS_GRID| Real space distribution over                                 32 groups
 RS_GRID| Real space distribution along direction                              3
 RS_GRID| Border size                                                         34
 RS_GRID|   Distribution                         Average         Max         Min
 RS_GRID|   Planes                                  83.6          84          83

 RS_GRID| Information for grid number                                          2
 RS_GRID|   Bounds   1            -40      39                Points:          80
 RS_GRID|   Bounds   2            -36      35                Points:          72
 RS_GRID|   Bounds   3           -150     149                Points:         300
 RS_GRID| Real space distribution over                                 32 groups
 RS_GRID| Real space distribution along direction                              3
 RS_GRID| Border size                                                         24
 RS_GRID|   Distribution                         Average         Max         Min
 RS_GRID|   Planes                                  57.4          58          57

 RS_GRID| Information for grid number                                          3
 RS_GRID|   Bounds   1            -22      22                Points:          45
 RS_GRID|   Bounds   2            -20      19                Points:          40
 RS_GRID|   Bounds   3            -90      89                Points:         180
 RS_GRID| Real space fully replicated
 RS_GRID| Group size                                                           1

 RS_GRID| Information for grid number                                          4
 RS_GRID|   Bounds   1            -13      13                Points:          27
 RS_GRID|   Bounds   2            -12      11                Points:          24
 RS_GRID|   Bounds   3            -50      49                Points:         100
 RS_GRID| Real space fully replicated
 RS_GRID| Group size                                                           1

 Number of electrons:                                                        968
 Number of occupied orbitals:                                                484
 Number of molecular orbitals:                                               984

 Number of orbital functions:                                               1943
 Number of independent orbital functions:                                   1943

 Extrapolation method: initial_guess


 SCF WAVEFUNCTION OPTIMIZATION

  Step     Update method      Time    Convergence         Total energy    Change
  ------------------------------------------------------------------------------

  POISSON| IMPLICIT (GENERALIZED) SOLVER ---------------------------------------
  POISSON| Preparing Dirichlet regions ...
  POISSON| Dirichlet region    1
  POISSON|     type : axis-aligned planar
  POISSON|     applied potential :   0.0000E+00  [Eh/e]
  POISSON| Dirichlet region    2
  POISSON|     type : axis-aligned planar
  POISSON|     applied potential :   0.1837E+00  [Eh/e]
  POISSON| ... Done. 
  ------------------------------------------------------------------------------

  POISSON|   iter        pres error      nabs error        E_hartree    delta E
  POISSON|      1        0.5982E-02      0.5848E-01     901.3107863922  0.90E+03
  POISSON|      2        0.8602E-15      0.5982E-02     901.3553477708  0.45E-01
  POISSON| Poisson solver converged in 2 iterations.
     1 NoMix/Diag. 0.30E+00    2.5     0.44038824     -2537.8744884393 -2.54E+03
  POISSON|   iter        pres error      nabs error        E_hartree    delta E
  POISSON|      1        0.6196E-02      0.5851E-01     901.3883626293  0.33E-01
  POISSON|      2        0.9434E-15      0.6196E-02     901.4345211158  0.46E-01
  POISSON| Poisson solver converged in 2 iterations.
     2 Broy./Diag. 0.30E+00    2.6     0.20281829     -2538.2811064175 -4.07E-01
  POISSON|   iter        pres error      nabs error        E_hartree    delta E
  POISSON|      1        0.2132E-03      0.6488E-03     901.4325972515 -0.19E-02
  POISSON|      2        0.3336E-15      0.2132E-03     901.4310094093 -0.16E-02
  POISSON| Poisson solver converged in 2 iterations.
     3 Broy./Diag. 0.30E+00    2.7     0.18100446     -2537.8823957652  3.99E-01
  POISSON|   iter        pres error      nabs error        E_hartree    delta E
  POISSON|      1        0.1180E-04      0.5192E-04     901.4695023995  0.38E-01
  POISSON|      2        0.5619E-16      0.1180E-04     901.4695902691  0.88E-04
  POISSON| Poisson solver converged in 2 iterations.
     4 Broy./Diag. 0.30E+00    2.6     0.03637507     -2538.1670918202 -2.85E-01
  POISSON|   iter        pres error      nabs error        E_hartree    delta E
  POISSON|      1        0.5358E-05      0.2956E-04     901.4845306367  0.15E-01
  POISSON|      2        0.2104E-16      0.5358E-05     901.4844907217 -0.40E-04
  POISSON| Poisson solver converged in 2 iterations.
     5 Broy./Diag. 0.30E+00    2.6     0.02481935     -2538.0751440031  9.19E-02
  POISSON|   iter        pres error      nabs error        E_hartree    delta E
  POISSON|      1        0.4132E-05      0.3474E-04     901.4905482869  0.61E-02
  POISSON|      2        0.1013E-15      0.4132E-05     901.4905175048 -0.31E-04
  POISSON| Poisson solver converged in 2 iterations.
     6 Broy./Diag. 0.30E+00    2.7     0.01755690     -2537.9637882661  1.11E-01
  POISSON|   iter        pres error      nabs error        E_hartree    delta E
  POISSON|      1        0.2309E-05      0.2549E-04     901.5067172446  0.16E-01
  POISSON|      2        0.3458E-16      0.2309E-05     901.5067000442 -0.17E-04
  POISSON| Poisson solver converged in 2 iterations.
     7 Broy./Diag. 0.30E+00    2.7     0.01159496     -2538.2061646136 -2.42E-01
  POISSON|   iter        pres error      nabs error        E_hartree    delta E
  POISSON|      1        0.1295E-05      0.1921E-04     901.5080977867  0.14E-02
  POISSON|      2        0.3041E-16      0.1295E-05     901.5081074362  0.96E-05
  POISSON| Poisson solver converged in 2 iterations.
     8 Broy./Diag. 0.30E+00    2.7     0.00795179     -2537.9332183641  2.73E-01
  POISSON|   iter        pres error      nabs error        E_hartree    delta E
  POISSON|      1        0.9317E-06      0.1062E-04     901.5150583615  0.70E-02
  POISSON|      2        0.5753E-17      0.9317E-06     901.5150514207 -0.69E-05
  POISSON| Poisson solver converged in 2 iterations.
     9 Broy./Diag. 0.30E+00    2.7     0.00446583     -2538.0739229174 -1.41E-01
  POISSON|   iter        pres error      nabs error        E_hartree    delta E
  POISSON|      1        0.3062E-05      0.1285E-04     901.5191237042  0.41E-02
  POISSON|      2        0.2873E-16      0.3062E-05     901.5191008938 -0.23E-04
  POISSON| Poisson solver converged in 2 iterations.
    10 Broy./Diag. 0.30E+00    2.7     0.00266014     -2538.0020692156  7.19E-02
  POISSON|   iter        pres error      nabs error        E_hartree    delta E
  POISSON|      1        0.7007E-06      0.6164E-05     901.5221580160  0.31E-02
  POISSON|      2        0.7181E-17      0.7007E-06     901.5221527963 -0.52E-05
  POISSON| Poisson solver converged in 2 iterations.
    11 Broy./Diag. 0.30E+00    2.7     0.00087270     -2538.0139534885 -1.19E-02
  POISSON|   iter        pres error      nabs error        E_hartree    delta E
  POISSON|      1        0.1670E-06      0.3511E-05     901.5243255505  0.22E-02
  POISSON|      2        0.8517E-18      0.1670E-06     901.5243243068 -0.12E-05
  POISSON| Poisson solver converged in 2 iterations.
    12 Broy./Diag. 0.30E+00    2.7     0.00089278     -2538.0131479239  8.06E-04
  POISSON|   iter        pres error      nabs error        E_hartree    delta E
  POISSON|      1        0.1312E-05      0.6752E-05     901.5270909937  0.28E-02
  POISSON|      2        0.8079E-17      0.1312E-05     901.5270812214 -0.98E-05
  POISSON| Poisson solver converged in 2 iterations.
    13 Broy./Diag. 0.30E+00    2.7     0.00147232     -2538.0033476738  9.80E-03
  POISSON|   iter        pres error      nabs error        E_hartree    delta E
  POISSON|      1        0.4193E-07      0.3367E-05     901.5284304126  0.13E-02
  POISSON|      2        0.7244E-17      0.4193E-07     901.5284301003 -0.31E-06
  POISSON| Poisson solver converged in 2 iterations.
    14 Broy./Diag. 0.30E+00    2.7     0.00135611     -2538.0016532988  1.69E-03
  POISSON|   iter        pres error      nabs error        E_hartree    delta E
  POISSON|      1        0.4637E-06      0.3683E-05     901.5291100551  0.68E-03
  POISSON|      2        0.4289E-17      0.4637E-06     901.5291066011 -0.35E-05
  POISSON| Poisson solver converged in 2 iterations.
    15 Broy./Diag. 0.30E+00    2.7     0.00061792     -2537.9952379750  6.42E-03
  POISSON|   iter        pres error      nabs error        E_hartree    delta E
  POISSON|      1        0.6965E-08      0.1305E-05     901.5290711295 -0.35E-04
  POISSON| Poisson solver converged in 1 iteration. 
    16 Broy./Diag. 0.30E+00    2.3     0.00040400     -2537.9981937906 -2.96E-03
  POISSON|   iter        pres error      nabs error        E_hartree    delta E
  POISSON|      1        0.2614E-06      0.2072E-05     901.5285511841 -0.52E-03
  POISSON|      2        0.5848E-17      0.2614E-06     901.5285492372 -0.19E-05
  POISSON| Poisson solver converged in 2 iterations.
    17 Broy./Diag. 0.30E+00    2.7     0.00035763     -2537.9942457094  3.95E-03
  POISSON|   iter        pres error      nabs error        E_hartree    delta E
  POISSON|      1        0.9891E-08      0.1880E-05     901.5281957355 -0.35E-03
  POISSON| Poisson solver converged in 1 iteration. 
    18 Broy./Diag. 0.30E+00    2.3     0.00042229     -2538.0006227723 -6.38E-03
  POISSON|   iter        pres error      nabs error        E_hartree    delta E
  POISSON|      1        0.4091E-07      0.1311E-05     901.5275646271 -0.63E-03
  POISSON|      2        0.2572E-17      0.4091E-07     901.5275649319  0.30E-06
  POISSON| Poisson solver converged in 2 iterations.
    19 Broy./Diag. 0.30E+00    2.7     0.00036048     -2537.9923623463  8.26E-03
  POISSON|   iter        pres error      nabs error        E_hartree    delta E
  POISSON|      1        0.1249E-08      0.1367E-05     901.5272080590 -0.36E-03
  POISSON| Poisson solver converged in 1 iteration. 
    20 Broy./Diag. 0.30E+00    2.3     0.00021192     -2538.0002811743 -7.92E-03
  POISSON|   iter        pres error      nabs error        E_hartree    delta E
  POISSON|      1        0.1883E-08      0.1007E-05     901.5270773371 -0.13E-03
  POISSON| Poisson solver converged in 1 iteration. 
    21 Broy./Diag. 0.30E+00    2.3     0.00009992     -2537.9990014505  1.28E-03
  POISSON|   iter        pres error      nabs error        E_hartree    delta E
  POISSON|      1        0.1876E-06      0.1034E-05     901.5270023478 -0.75E-04
  POISSON|      2        0.2184E-17      0.1876E-06     901.5270037450  0.14E-05
  POISSON| Poisson solver converged in 2 iterations.
    22 Broy./Diag. 0.30E+00    2.7     0.00011181     -2537.9983133335  6.88E-04
  POISSON|   iter        pres error      nabs error        E_hartree    delta E
  POISSON|      1        0.1118E-06      0.7777E-06     901.5269249198 -0.79E-04
  POISSON|      2        0.5573E-17      0.1118E-06     901.5269257527  0.83E-06
  POISSON| Poisson solver converged in 2 iterations.
    23 Broy./Diag. 0.30E+00    2.7     0.00011970     -2537.9981614465  1.52E-04
  POISSON|   iter        pres error      nabs error        E_hartree    delta E
  POISSON|      1        0.6570E-07      0.9151E-06     901.5268969102 -0.29E-04
  POISSON|      2        0.5563E-17      0.6570E-07     901.5268973996  0.49E-06
  POISSON| Poisson solver converged in 2 iterations.
    24 Broy./Diag. 0.30E+00    2.7     0.00014091     -2537.9977101767  4.51E-04
  POISSON|   iter        pres error      nabs error        E_hartree    delta E
  POISSON|      1        0.1131E-06      0.7078E-06     901.5268951017 -0.23E-05
  POISSON|      2        0.0000E+00      0.1131E-06     901.5268959442  0.84E-06
  POISSON| Poisson solver converged in 2 iterations.
    25 Broy./Diag. 0.30E+00    2.7     0.00007197     -2537.9978924792 -1.82E-04
  POISSON|   iter        pres error      nabs error        E_hartree    delta E
  POISSON|      1        0.1231E-06      0.7974E-06     901.5268555080 -0.40E-04
  POISSON|      2        0.1263E-16      0.1231E-06     901.5268564249  0.92E-06
  POISSON| Poisson solver converged in 2 iterations.
    26 Broy./Diag. 0.30E+00    2.7     0.00006236     -2537.9972058711  6.87E-04
  POISSON|   iter        pres error      nabs error        E_hartree    delta E
  POISSON|      1        0.1248E-06      0.6337E-06     901.5268391215 -0.17E-04
  POISSON|      2        0.1239E-16      0.1248E-06     901.5268400512  0.93E-06
  POISSON| Poisson solver converged in 2 iterations.
    27 Broy./Diag. 0.30E+00    2.7     0.00006814     -2537.9972033841  2.49E-06
  POISSON|   iter        pres error      nabs error        E_hartree    delta E
  POISSON|      1        0.7467E-07      0.5149E-06     901.5267577229 -0.82E-04
  POISSON|      2        0.7634E-17      0.7467E-07     901.5267582791  0.56E-06
  POISSON| Poisson solver converged in 2 iterations.
    28 Broy./Diag. 0.30E+00    2.7     0.00006107     -2537.9964449557  7.58E-04
  POISSON|   iter        pres error      nabs error        E_hartree    delta E
  POISSON|      1        0.7032E-07      0.5111E-06     901.5267457918 -0.12E-04
  POISSON|      2        0.0000E+00      0.7032E-07     901.5267463156  0.52E-06
  POISSON| Poisson solver converged in 2 iterations.
    29 Broy./Diag. 0.30E+00    2.7     0.00005165     -2537.9976824409 -1.24E-03
  POISSON|   iter        pres error      nabs error        E_hartree    delta E
  POISSON|      1        0.8873E-07      0.4806E-06     901.5266844879 -0.62E-04
  POISSON|      2        0.1100E-16      0.8873E-07     901.5266851489  0.66E-06
  POISSON| Poisson solver converged in 2 iterations.
    30 Broy./Diag. 0.30E+00    2.7     0.00004246     -2537.9965992048  1.08E-03
  POISSON|   iter        pres error      nabs error        E_hartree    delta E
  POISSON|      1        0.1107E-06      0.5041E-06     901.5266312303 -0.54E-04
  POISSON|      2        0.3826E-17      0.1107E-06     901.5266320550  0.82E-06
  POISSON| Poisson solver converged in 2 iterations.
    31 Broy./Diag. 0.30E+00    2.7     0.00003177     -2537.9969336260 -3.34E-04
  POISSON|   iter        pres error      nabs error        E_hartree    delta E
  POISSON|      1        0.4794E-07      0.4035E-06     901.5265956288 -0.36E-04
  POISSON|      2        0.5900E-17      0.4794E-07     901.5265959859  0.36E-06
  POISSON| Poisson solver converged in 2 iterations.
    32 Broy./Diag. 0.30E+00    2.7     0.00003273     -2537.9969197482  1.39E-05
  POISSON|   iter        pres error      nabs error        E_hartree    delta E
  POISSON|      1        0.5349E-07      0.2830E-06     901.5265726321 -0.23E-04
  POISSON|      2        0.0000E+00      0.5349E-07     901.5265730305  0.40E-06
  POISSON| Poisson solver converged in 2 iterations.
    33 Broy./Diag. 0.30E+00    2.7     0.00002656     -2537.9968330595  8.67E-05
  POISSON|   iter        pres error      nabs error        E_hartree    delta E
  POISSON|      1        0.6718E-07      0.3453E-06     901.5265528733 -0.20E-04
  POISSON|      2        0.1819E-17      0.6718E-07     901.5265533737  0.50E-06
  POISSON| Poisson solver converged in 2 iterations.
    34 Broy./Diag. 0.30E+00    2.7     0.00002537     -2537.9968527362 -1.97E-05
  POISSON|   iter        pres error      nabs error        E_hartree    delta E
  POISSON|      1        0.5332E-07      0.3048E-06     901.5265405720 -0.13E-04
  POISSON|      2        0.4738E-17      0.5332E-07     901.5265409692  0.40E-06
  POISSON| Poisson solver converged in 2 iterations.
    35 Broy./Diag. 0.30E+00    2.7     0.00002042     -2537.9966948890  1.58E-04
  POISSON|   iter        pres error      nabs error        E_hartree    delta E
  POISSON|      1        0.6060E-07      0.3573E-06     901.5265262918 -0.15E-04
  POISSON|      2        0.8045E-17      0.6060E-07     901.5265267432  0.45E-06
  POISSON| Poisson solver converged in 2 iterations.
    36 Broy./Diag. 0.30E+00    2.7     0.00001878     -2537.9967054419 -1.06E-05
  POISSON|   iter        pres error      nabs error        E_hartree    delta E
  POISSON|      1        0.4965E-07      0.2963E-06     901.5265085362 -0.18E-04
  POISSON|      2        0.3604E-17      0.4965E-07     901.5265089060  0.37E-06
  POISSON| Poisson solver converged in 2 iterations.
    37 Broy./Diag. 0.30E+00    2.7     0.00001939     -2537.9965870324  1.18E-04
  POISSON|   iter        pres error      nabs error        E_hartree    delta E
  POISSON|      1        0.2521E-07      0.1342E-06     901.5265101283  0.12E-05
  POISSON|      2        0.8705E-18      0.2521E-07     901.5265103161  0.19E-06
  POISSON| Poisson solver converged in 2 iterations.
    38 Broy./Diag. 0.30E+00    2.7     0.00001644     -2537.9967263137 -1.39E-04
  POISSON|   iter        pres error      nabs error        E_hartree    delta E
  POISSON|      1        0.4175E-07      0.2125E-06     901.5264882474 -0.22E-04
  POISSON|      2        0.2456E-17      0.4175E-07     901.5264885585  0.31E-06
  POISSON| Poisson solver converged in 2 iterations.
    39 Broy./Diag. 0.30E+00    2.7     0.00001172     -2537.9964184846  3.08E-04
  POISSON|   iter        pres error      nabs error        E_hartree    delta E
  POISSON|      1        0.2825E-07      0.1593E-06     901.5264801273 -0.84E-05
  POISSON|      2        0.6741E-17      0.2825E-07     901.5264803377  0.21E-06
  POISSON| Poisson solver converged in 2 iterations.
    40 Broy./Diag. 0.30E+00    2.7     0.00001046     -2537.9966650629 -2.47E-04
  POISSON|   iter        pres error      nabs error        E_hartree    delta E
  POISSON|      1        0.3590E-07      0.2217E-06     901.5264599574 -0.20E-04
  POISSON|      2        0.5428E-17      0.3590E-07     901.5264602249  0.27E-06
  POISSON| Poisson solver converged in 2 iterations.
    41 Broy./Diag. 0.30E+00    2.7     0.00001041     -2537.9965366988  1.28E-04
  POISSON|   iter        pres error      nabs error        E_hartree    delta E
  POISSON|      1        0.3808E-07      0.1626E-06     901.5264446730 -0.16E-04
  POISSON|      2        0.2245E-17      0.3808E-07     901.5264449567  0.28E-06
  POISSON| Poisson solver converged in 2 iterations.
    42 Broy./Diag. 0.30E+00    2.7     0.00001206     -2537.9965730138 -3.63E-05
  POISSON|   iter        pres error      nabs error        E_hartree    delta E
  POISSON|      1        0.2207E-07      0.1212E-06     901.5264355069 -0.94E-05
  POISSON|      2        0.2554E-17      0.2207E-07     901.5264356713  0.16E-06
  POISSON| Poisson solver converged in 2 iterations.
    43 Broy./Diag. 0.30E+00    2.7     0.00000786     -2537.9965869844 -1.40E-05
  POISSON|   iter        pres error      nabs error        E_hartree    delta E
  POISSON|      1        0.2578E-07      0.1372E-06     901.5264253656 -0.10E-04
  POISSON|      2        0.2927E-17      0.2578E-07     901.5264255576  0.19E-06
  POISSON| Poisson solver converged in 2 iterations.
    44 Broy./Diag. 0.30E+00    2.7     0.00000665     -2537.9965624296  2.46E-05
  POISSON|   iter        pres error      nabs error        E_hartree    delta E
  POISSON|      1        0.2703E-07      0.1373E-06     901.5264168775 -0.87E-05
  POISSON|      2        0.1338E-17      0.2703E-07     901.5264170789  0.20E-06
  POISSON| Poisson solver converged in 2 iterations.
    45 Broy./Diag. 0.30E+00    2.7     0.00000611     -2537.9965700351 -7.61E-06
  POISSON|   iter        pres error      nabs error        E_hartree    delta E
  POISSON|      1        0.3338E-07      0.1603E-06     901.5264065717 -0.11E-04
  POISSON|      2        0.6479E-18      0.3338E-07     901.5264068204  0.25E-06
  POISSON| Poisson solver converged in 2 iterations.
    46 Broy./Diag. 0.30E+00    2.7     0.00000455     -2537.9965326796  3.74E-05
  POISSON|   iter        pres error      nabs error        E_hartree    delta E
  POISSON|      1        0.2820E-07      0.1365E-06     901.5264010214 -0.58E-05
  POISSON|      2        0.5420E-17      0.2820E-07     901.5264012315  0.21E-06
  POISSON| Poisson solver converged in 2 iterations.
    47 Broy./Diag. 0.30E+00    2.7     0.00000494     -2537.9965373187 -4.64E-06
  POISSON|   iter        pres error      nabs error        E_hartree    delta E
  POISSON|      1        0.2931E-08      0.1551E-07     901.5263980853 -0.31E-05
  POISSON| Poisson solver converged in 1 iteration. 
    48 Broy./Diag. 0.30E+00    2.3     0.00000586     -2537.9964692566  6.81E-05
  POISSON|   iter        pres error      nabs error        E_hartree    delta E
  POISSON|      1        0.1593E-07      0.8340E-07     901.5263956697 -0.24E-05
  POISSON|      2        0.2138E-17      0.1593E-07     901.5263957884  0.12E-06
  POISSON| Poisson solver converged in 2 iterations.
    49 Broy./Diag. 0.30E+00    2.7     0.00000332     -2537.9965655251 -9.63E-05
  POISSON|   iter        pres error      nabs error        E_hartree    delta E
  POISSON|      1        0.1374E-07      0.6192E-07     901.5263908682 -0.49E-05
  POISSON|      2        0.1676E-17      0.1374E-07     901.5263909705  0.10E-06
  POISSON| Poisson solver converged in 2 iterations.
    50 Broy./Diag. 0.30E+00    2.7     0.00000325     -2537.9964758092  8.97E-05
  POISSON|   iter        pres error      nabs error        E_hartree    delta E
  POISSON|      1        0.1370E-07      0.5772E-07     901.5263879969 -0.30E-05
  POISSON|      2        0.3911E-17      0.1370E-07     901.5263880990  0.10E-06
  POISSON| Poisson solver converged in 2 iterations.
    51 Broy./Diag. 0.30E+00    2.7     0.00000306     -2537.9965135216 -3.77E-05
  POISSON|   iter        pres error      nabs error        E_hartree    delta E
  POISSON|      1        0.9156E-08      0.5013E-07     901.5263841350 -0.40E-05
  POISSON| Poisson solver converged in 1 iteration. 
    52 Broy./Diag. 0.30E+00    2.3     0.00000202     -2537.9964891887  2.43E-05
  POISSON|   iter        pres error      nabs error        E_hartree    delta E
  POISSON|      1        0.7247E-08      0.3709E-07     901.5263805566 -0.36E-05
  POISSON| Poisson solver converged in 1 iteration. 
    53 Broy./Diag. 0.30E+00    2.3     0.00000222     -2537.9964844136  4.78E-06
  POISSON|   iter        pres error      nabs error        E_hartree    delta E
  POISSON|      1        0.1145E-07      0.5304E-07     901.5263761794 -0.44E-05
  POISSON|      2        0.1155E-17      0.1145E-07     901.5263762647  0.85E-07
  POISSON| Poisson solver converged in 2 iterations.
    54 Broy./Diag. 0.30E+00    2.7     0.00000165     -2537.9964976954 -1.33E-05
  POISSON|   iter        pres error      nabs error        E_hartree    delta E
  POISSON|      1        0.7286E-08      0.2382E-07     901.5263747162 -0.15E-05
  POISSON| Poisson solver converged in 1 iteration. 
    55 Broy./Diag. 0.30E+00    2.3     0.00000344     -2537.9964925063  5.19E-06
  POISSON|   iter        pres error      nabs error        E_hartree    delta E
  POISSON|      1        0.7653E-08      0.3902E-07     901.5263717221 -0.30E-05
  POISSON| Poisson solver converged in 1 iteration. 
    56 Broy./Diag. 0.30E+00    2.3     0.00000156     -2537.9964880863  4.42E-06
  POISSON|   iter        pres error      nabs error        E_hartree    delta E
  POISSON|      1        0.1051E-07      0.4338E-07     901.5263691570 -0.26E-05
  POISSON|      2        0.3798E-17      0.1051E-07     901.5263692353  0.78E-07
  POISSON| Poisson solver converged in 2 iterations.
    57 Broy./Diag. 0.30E+00    2.7     0.00000144     -2537.9964865685  1.52E-06
  POISSON|   iter        pres error      nabs error        E_hartree    delta E
  POISSON|      1        0.8411E-08      0.3748E-07     901.5263688912 -0.34E-06
  POISSON| Poisson solver converged in 1 iteration. 
    58 Broy./Diag. 0.30E+00    2.3     0.00000298     -2537.9964904881 -3.92E-06
  POISSON|   iter        pres error      nabs error        E_hartree    delta E
  POISSON|      1        0.1564E-08      0.1092E-07     901.5263673773 -0.15E-05
  POISSON| Poisson solver converged in 1 iteration. 
    59 Broy./Diag. 0.30E+00    2.3     0.00000300     -2537.9964488010  4.17E-05
  POISSON|   iter        pres error      nabs error        E_hartree    delta E
  POISSON|      1        0.9970E-08      0.4647E-07     901.5263664058 -0.97E-06
  POISSON| Poisson solver converged in 1 iteration. 
    60 Broy./Diag. 0.30E+00    2.3     0.00000175     -2537.9964992491 -5.04E-05
  POISSON|   iter        pres error      nabs error        E_hartree    delta E
  POISSON|      1        0.4229E-08      0.2042E-07     901.5263652712 -0.11E-05
  POISSON| Poisson solver converged in 1 iteration. 
    61 Broy./Diag. 0.30E+00    2.3     0.00000204     -2537.9964658333  3.34E-05
  POISSON|   iter        pres error      nabs error        E_hartree    delta E
  POISSON|      1        0.4290E-08      0.2002E-07     901.5263646241 -0.65E-06
  POISSON| Poisson solver converged in 1 iteration. 
    62 Broy./Diag. 0.30E+00    2.3     0.00000106     -2537.9964715793 -5.75E-06
  POISSON|   iter        pres error      nabs error        E_hartree    delta E
  POISSON|      1        0.3821E-08      0.1556E-07     901.5263639696 -0.65E-06
  POISSON| Poisson solver converged in 1 iteration. 
    63 Broy./Diag. 0.30E+00    2.3     0.00000065     -2537.9964775761 -6.00E-06

  *** SCF run converged in    63 steps ***


  Electronic density on regular grids:       -968.0000000018       -0.0000000018
  Core density on regular grids:              967.9999999998       -0.0000000002
  Total charge density on r-space grids:       -0.0000000020
  Total charge density g-space grids:          -0.0000000020

  Overlap energy of the core charge distribution:               0.00003407112154
  Self energy of the core charge distribution:              -4440.62962420003350
  Core Hamiltonian energy:                                   1440.15316245090753
  Hartree energy:                                             901.52636396961486
[...]
     90      1      Pt         -0.00677561     0.00168297     0.01171500
     91      1      Pt          0.01392960    -0.00084649    -0.29474485
     92      1      Pt          0.00695522     0.00154886     0.00932503
     93      1      Pt          0.00119887     0.00024082     0.01415095
     94      1      Pt         -0.00281639     0.00595397     0.01105494
     95      1      Pt          0.00342942     0.00752456     0.00871098
     96      1      Pt         -0.00109104     0.00015265     0.01371256
     97      2      O           0.01081016    -0.00013513     0.29370038
     98      3      H          -0.01288078     0.02464703     0.01828330
     99      3      H          -0.01281129    -0.02456711     0.01834399
 SUM OF ATOMIC FORCES           0.00035346     0.00000043     0.00201292     0.00204372

 -------------------------------------------------------------------------------
 -                                                                             -
 -                                DBCSR STATISTICS                             -
 -                                                                             -
 -------------------------------------------------------------------------------
 COUNTER                                    TOTAL       BLAS       SMM       ACC
 flops     5 x    24 x     5                 4800       0.0%    100.0%      0.0%
 flops     5 x    24 x    13                 6240       0.0%    100.0%      0.0%
 flops    13 x    24 x     5                 6240       0.0%    100.0%      0.0%
 flops    13 x    24 x    13                 8112       0.0%    100.0%      0.0%
 flops     5 x    21 x     5                25200       0.0%    100.0%      0.0%
 flops     5 x    21 x    13                32760       0.0%    100.0%      0.0%
 flops    13 x    21 x     5                32760       0.0%    100.0%      0.0%
 flops    13 x    21 x    13                42588       0.0%    100.0%      0.0%
 flops     5 x    32 x     5               691200       0.0%    100.0%      0.0%
 flops     5 x    13 x    96               811200       0.0%    100.0%      0.0%
 flops    13 x     5 x    96               811200       0.0%    100.0%      0.0%
 flops     5 x    32 x    13               898560       0.0%    100.0%      0.0%
 flops    13 x    32 x     5               898560       0.0%    100.0%      0.0%
 flops     5 x    24 x    20               916800       0.0%    100.0%      0.0%
 flops    20 x    24 x     5               916800       0.0%    100.0%      0.0%
 flops     5 x     5 x    96               936000       0.0%    100.0%      0.0%
 flops    20 x    24 x    13               998400       0.0%    100.0%      0.0%
 flops    13 x    24 x    20               998400       0.0%    100.0%      0.0%
 flops     5 x    13 x   120              1014000       0.0%    100.0%      0.0%
 flops    13 x     5 x   120              1014000       0.0%    100.0%      0.0%
 flops    13 x    32 x    13              1168128       0.0%    100.0%      0.0%
 flops     5 x     5 x   120              1170000       0.0%    100.0%      0.0%
 flops    13 x    13 x    96              2109120       0.0%    100.0%      0.0%
 flops    13 x    13 x   120              2636400       0.0%    100.0%      0.0%
 flops     5 x    21 x    20              4813200       0.0%    100.0%      0.0%
 flops    20 x    21 x     5              4813200       0.0%    100.0%      0.0%
 flops    20 x    21 x    13              5241600       0.0%    100.0%      0.0%
 flops    13 x    21 x    20              5241600       0.0%    100.0%      0.0%
 flops     5 x    13 x   128              6489600       0.0%    100.0%      0.0%
 flops    13 x     5 x   128              6489600       0.0%    100.0%      0.0%
 flops     5 x     5 x   128              7488000       0.0%    100.0%      0.0%
 flops    13 x    13 x   128             16872960       0.0%    100.0%      0.0%
 flops    20 x     5 x    96            118560000       0.0%    100.0%      0.0%
 flops     5 x    20 x    96            119808000       0.0%    100.0%      0.0%
 flops    20 x    13 x    96            129792000       0.0%    100.0%      0.0%
 flops    13 x    20 x    96            129792000       0.0%    100.0%      0.0%
 flops    20 x    32 x     5            132019200       0.0%    100.0%      0.0%
 flops     5 x    32 x    20            132019200       0.0%    100.0%      0.0%
 flops    20 x    32 x    13            143769600       0.0%    100.0%      0.0%
 flops    13 x    32 x    20            143769600       0.0%    100.0%      0.0%
 flops    20 x     5 x   120            148200000       0.0%    100.0%      0.0%
 flops     5 x    20 x   120            149760000       0.0%    100.0%      0.0%
 flops    20 x    13 x   120            162240000       0.0%    100.0%      0.0%
 flops    13 x    20 x   120            162240000       0.0%    100.0%      0.0%
 flops    20 x    24 x    20            176947200       0.0%    100.0%      0.0%
 flops    20 x    21 x    20            928972800       0.0%    100.0%      0.0%
 flops    20 x     5 x   128            948480000       0.0%    100.0%      0.0%
 flops     5 x    20 x   128            958464000       0.0%    100.0%      0.0%
 flops    20 x    13 x   128           1038336000       0.0%    100.0%      0.0%
 flops    13 x    20 x   128           1038336000       0.0%    100.0%      0.0%
 flops    20 x    20 x    96          23242752000       0.0%    100.0%      0.0%
 flops    20 x    32 x    20          25480396800       0.0%    100.0%      0.0%
 flops    20 x    20 x   120          29053440000       0.0%    100.0%      0.0%
 flops    20 x    20 x   128         185942016000       0.0%    100.0%      0.0%
 flops inhomo. stacks                           0       0.0%      0.0%      0.0%
 flops total                       270.555708E+09       0.0%    100.0%      0.0%
 flops max/rank                      9.115609E+09       0.0%    100.0%      0.0%
 matmuls inhomo. stacks                         0       0.0%      0.0%      0.0%
 matmuls total                            3688365       0.0%    100.0%      0.0%
 number of processed stacks                 43523       0.0%    100.0%      0.0%
 average stack size                                     0.0      84.7       0.0
 marketing flops                   281.452282E+09
 -------------------------------------------------------------------------------
 # multiplications                             72
 max memory usage/rank             406.990848E+06
 # max total images/rank                        2
 # max 3D layers                                1
 # MPI messages exchanged                   29952
 MPI messages size (bytes):
  total size                        11.586652E+09
  min size                          61.440000E+03
  max size                         985.352000E+03
  average size                     386.840688E+03
 MPI breakdown and total messages size (bytes):
             size <=      128                   0                        0
       128 < size <=     8192                   0                        0
      8192 < size <=    32768                   0                        0
     32768 < size <=   131072                1152                122269104
    131072 < size <=  4194304               28800              11464386056
   4194304 < size <= 16777216                   0                        0
  16777216 < size                               0                        0
 -------------------------------------------------------------------------------

 *** WARNING in dbcsr_mm.F:295 :: Using a non-square number of MPI ranks ***
 *** might lead to poor performance. Used ranks: 32 Suggested: 36 64     ***

 -------------------------------------------------------------------------------
 -                                                                             -
 -                      DBCSR MESSAGE PASSING PERFORMANCE                      -
 -                                                                             -
 -------------------------------------------------------------------------------
 ROUTINE             CALLS      AVE VOLUME [Bytes]
 MP_Group               72
 MP_Bcast               55                     12.
 MP_Allreduce          601                     12.
 MP_Alltoall          1955                 265132.
 MP_Wait              4608
 MP_ISend             2304                 169253.
 MP_IRecv             2304                 163707.
 MP_Memory            8034
 -------------------------------------------------------------------------------

 MEMORY| Estimated peak process memory [MiB]                                 390

 -------------------------------------------------------------------------------
 ----                             MULTIGRID INFO                            ----
 -------------------------------------------------------------------------------
 count for grid        1:         253365          cutoff [a.u.]          200.00
 count for grid        2:         270318          cutoff [a.u.]           66.67
 count for grid        3:         158338          cutoff [a.u.]           22.22
 count for grid        4:         114434          cutoff [a.u.]            7.41
 total gridlevel count  :         796455

 -------------------------------------------------------------------------------
 -                                                                             -
 -                         MESSAGE PASSING PERFORMANCE                         -
 -                                                                             -
 -------------------------------------------------------------------------------

 ROUTINE             CALLS      AVE VOLUME [Bytes]
 MP_Group                4
 MP_Bcast             2182                 263416.
 MP_Allreduce         3064                   3465.
 MP_Sync                 5
 MP_Alltoall          3455               13160760.
 MP_SendRecv         45756                 168694.
 MP_ISendRecv         7936                  66000.
 MP_Wait             18856
 MP_ISend             9880                 180254.
 MP_IRecv             9880                 180254.
 MP_Recv               150                 497408.
 MP_Write_All            3                1119280.
 -------------------------------------------------------------------------------


 -------------------------------------------------------------------------------
 -                                                                             -
 -                           R E F E R E N C E S                               -
 -                                                                             -
 -------------------------------------------------------------------------------
 
 CP2K version 7.1, the CP2K developers group (2019).
 CP2K is freely available from https://www.cp2k.org/ .

 Bani-Hashemian, MH; Bruck, S; Luisier, M; VandeVondele, J. 
 JOURNAL OF CHEMICAL PHYSICS, 144 (4), 044113 (2016). 
 A generalized Poisson solver for first-principles device simulations.
 https://dx.doi.org/10.1063/1.4940796

 Schuett, Ole; Messmer, Peter; Hutter, Juerg; VandeVondele, Joost. 
 Electronic Structure Calculations on Graphics Processing Units, John
 Wiley & Sons, Ltd, 173-190 (2016). 
 GPU-Accelerated Sparse Matrix-Matrix Multiplication for
 Linear Scaling Density Functional Theory.
 https://dx.doi.org/10.1002/9781118670712.ch8

 Borstnik, U; VandeVondele, J; Weber, V; Hutter, J. 
 PARALLEL COMPUTING, 40 (5-6), 47-58 (2014). 
 Sparse matrix multiplication: The distributed block-compressed sparse
 row library.
 https://dx.doi.org/10.1016/j.parco.2014.03.012

 Hutter, J; Iannuzzi, M; Schiffmann, F; VandeVondele, J. 
 WIREs Comput Mol Sci., 4 (1), 15-25 (2014). 
 CP2K: atomistic simulations of condensed matter systems.
 https://dx.doi.org/10.1002/wcms.1159

 Marek, A; Blum, V; Johanni, R; Havu, V; Lang, B; Auckenthaler, T;
 Heinecke, A; Bungartz, H; Lederer, H. 
 Journal of Physics: Condensed Matter, 26 (21), (2014). 
 The ELPA library: scalable parallel eigenvalue solutions for
 electronic structure
 theory and computational science.
 https://dx.doi.org/10.1088/0953-8984/26/21/213201

 Grimme, S; Ehrlich, S; Goerigk, L. 
 JOURNAL OF COMPUTATIONAL CHEMISTRY, 32, 1456 (2011). 
 Effect of the damping function in dispersion corrected density functional theory.
 https://dx.doi.org/10.1002/jcc.21759

 Grimme, S; Antony, J; Ehrlich, S; Krieg, H. 
 JOURNAL OF CHEMICAL PHYSICS, 132 (15), 154104 (2010). 
 A consistent and accurate ab initio parametrization of density
 functional dispersion correction (DFT-D) for the 94 elements H-Pu.
 https://dx.doi.org/10.1063/1.3382344

 VandeVondele, J; Hutter, J. 
 JOURNAL OF CHEMICAL PHYSICS, 127 (11), 114105 (2007). 
 Gaussian basis sets for accurate calculations on molecular systems in
 gas and condensed phases.
 https://dx.doi.org/10.1063/1.2770708

 Krack, M. 
 THEORETICAL CHEMISTRY ACCOUNTS, 114 (1-3), 145-152 (2005). 
 Pseudopotentials for H to Kr optimized for gradient-corrected
 exchange-correlation functionals.
 https://dx.doi.org/10.1007/s00214-005-0655-y

 VandeVondele, J; Krack, M; Mohamed, F; Parrinello, M; Chassaing, T;
 Hutter, J. COMPUTER PHYSICS COMMUNICATIONS, 167 (2), 103-128 (2005). 
 QUICKSTEP: Fast and accurate density functional calculations using a
 mixed Gaussian and plane waves approach.
 https://dx.doi.org/10.1016/j.cpc.2004.12.014

 Frigo, M; Johnson, SG. 
 PROCEEDINGS OF THE IEEE, 93 (2), 216-231 (2005). 
 The design and implementation of FFTW3.
 https://dx.doi.org/10.1109/JPROC.2004.840301

 Hartwigsen, C; Goedecker, S; Hutter, J. 
 PHYSICAL REVIEW B, 58 (7), 3641-3662 (1998). 
 Relativistic separable dual-space Gaussian pseudopotentials from H to Rn.
 https://dx.doi.org/10.1103/PhysRevB.58.3641

 Lippert, G; Hutter, J; Parrinello, M. 
 MOLECULAR PHYSICS, 92 (3), 477-487 (1997). 
 A hybrid Gaussian and plane wave density functional scheme.
 https://dx.doi.org/10.1080/002689797170220

 Perdew, JP; Burke, K; Ernzerhof, M. 
 PHYSICAL REVIEW LETTERS, 77 (18), 3865-3868 (1996). 
 Generalized gradient approximation made simple.
 https://dx.doi.org/10.1103/PhysRevLett.77.3865

 Goedecker, S; Teter, M; Hutter, J. 
 PHYSICAL REVIEW B, 54 (3), 1703-1710 (1996). 
 Separable dual-space Gaussian pseudopotentials.
 https://dx.doi.org/10.1103/PhysRevB.54.1703


 -------------------------------------------------------------------------------
 -                                                                             -
 -                                T I M I N G                                  -
 -                                                                             -
 -------------------------------------------------------------------------------
 SUBROUTINE                       CALLS  ASD         SELF TIME        TOTAL TIME
                                MAXIMUM       AVERAGE  MAXIMUM  AVERAGE  MAXIMUM
 CP2K                                 1  1.0    0.011    0.020  214.496  214.505
 qs_forces                            1  2.0    0.000    0.000  214.224  214.227
 qs_energies                          1  3.0    0.000    0.000  210.182  210.185
 scf_env_do_scf                       1  4.0    0.000    0.000  163.492  163.506
 scf_env_do_scf_inner_loop           63  5.0    0.003    0.011  163.489  163.503
 rebuild_ks_matrix                   64  7.0    0.000    0.000  123.585  123.598
 qs_ks_build_kohn_sham_matrix        64  8.0    0.007    0.008  123.585  123.598
 qs_ks_update_qs_env                 63  6.0    0.000    0.000  121.434  121.446
 pw_transfer                       3182 12.0    0.185    0.228   89.227   89.798
 fft_wrap_pw1pw2                   3182 13.0    0.033    0.040   89.041   89.642
 fft_wrap_pw1pw2_200               2798 14.2    7.289    7.699   88.123   88.586
 pw_poisson_solve                    64  9.0    0.002    0.002   75.778   75.835
 implicit_poisson_solver_mixed_      64 10.0    1.686    1.958   71.436   71.549
 fft3d_ps                          3182 15.0   44.571   49.153   65.702   66.826
 derive_fft                         354 12.1    0.016    0.017   50.270   50.935
 scf_post_calculation_gpw             1  4.0    0.000    0.000   45.473   45.475
 get_localization_info                1  5.0    0.000    0.000   44.639   44.646
 qs_loc_driver                        1  6.0    0.000    0.000   44.639   44.646
 optimize_loc_berry                   1  7.0    0.015    0.017   44.632   44.634
 jacobi_rot_para                      1  8.0   35.354   38.480   44.543   44.544
 apply_P_operator                   290 11.2    0.695    0.878   41.924   42.402
 qs_rho_update_rho                   64  6.0    0.000    0.000   24.425   24.457
 calculate_rho_elec                  64  7.0   10.545   17.484   24.425   24.457
 sum_up_and_integrate                64  9.0    0.209    0.241   24.334   24.348
 integrate_v_rspace                  64 10.0   11.167   18.700   24.125   24.145
 qs_vxc_create                       64  9.0    0.002    0.002   21.225   21.388
 xc_vxc_pw_create                    64 10.0    0.252    0.334   21.223   21.386
 density_rs2pw                       64  8.0    0.003    0.003   13.038   16.107
 mp_alltoall_z22v                  3182 17.0   11.606   15.228   11.606   15.228
 rs_pw_transfer                     516 10.5    0.005    0.006   11.094   14.090
 apply_poisson_operator_fft          64 11.0    0.001    0.001   13.457   13.548
 x_to_yz                           1944 16.2    6.564    8.298   12.797   13.412
 xc_rho_set_and_dset_create          64 11.0    0.088    0.100   11.346   12.144
 apply_inv_laplace_operator_fft     179 11.6    0.335    0.396   11.539   11.795
 mp_alltoall_d11v                   967 10.4    7.889   11.128    7.889   11.128
 rs_distribute_matrix               129  9.5    0.107    0.275    7.938   11.075
 rs_pw_transfer_RS2PW_200            66 10.0    0.798    1.130    7.945   10.992
 pw_scatter_p                      2008 15.2   10.202   10.789   10.202   10.789
 mp_waitany                        9880 12.4    7.604   10.702    7.604   10.702
 qs_scf_new_mos                      63  6.0    0.001    0.001   10.670   10.687
 yz_to_x                           1110 15.7    2.873    3.293    8.240    9.795
 ps_implicit_compute_veps            64 11.0    0.237    0.363    9.281    9.671
 eigensolver                         63  7.0    0.003    0.004    9.410    9.430
 mp_allgather_d23                 22816  9.0    6.256    8.744    6.256    8.744
 ps_implicit_compute_error_fft      113 10.9    0.448    0.488    8.007    8.410
 cp_fm_diag_elpa                     64  8.0    0.000    0.000    7.682    7.687
 cp_fm_diag_elpa_base                64  9.0    7.490    7.496    7.681    7.686
 gspace_mixing                       62  6.0    0.072    0.085    7.235    7.235
 pw_gather_p                       1174 14.5    5.747    6.036    5.747    6.036
 pw_derive                         1446 12.7    4.981    5.388    4.981    5.388
 potential_pw2rs                     64 11.0    0.007    0.008    5.191    5.202
 broyden_mixing                      62  7.0    5.098    5.130    5.172    5.180
 xc_functional_eval                  64 12.0    0.000    0.001    4.123    5.010
 pbe_lda_eval                        64 13.0    4.123    5.009    4.123    5.009
 -------------------------------------------------------------------------------

 The number of warnings for this run is : 1
 
 -------------------------------------------------------------------------------
  **** **** ******  **  PROGRAM ENDED AT                 2024-11-01 22:46:06.495
 ***** ** ***  *** **   PROGRAM RAN ON                                   c53-012
 **    ****   ******    PROGRAM RAN BY                                     jxzhu
 ***** **    ** ** **   PROGRAM PROCESS ID                                260362
  **** **  *******  **  PROGRAM STOPPED IN /data/jxzhu/nnp/dp_workdir/d1f764b96e
                                           9a01b62c3e35b0c4f5198f3ba3ed59/calc.0
                                           00/task.001.000001
