 DBCSR| CPU Multiplication driver                                           XSMM
 DBCSR| Multrec recursion limit                                              512
 DBCSR| Multiplication stack size                                           1000
 DBCSR| Maximum elements for images                                    UNLIMITED
 DBCSR| Multiplicative factor virtual images                                   1
 DBCSR| Use multiplication densification                                       T
 DBCSR| Multiplication size stacks                                             3
 DBCSR| Use memory pool for CPU allocation                                     F
 DBCSR| Number of 3D layers                                               SINGLE
 DBCSR| Use MPI memory allocation                                              F
 DBCSR| Use RMA algorithm                                                      F
 DBCSR| Use Communication thread                                               T
 DBCSR| Communication thread load                                             87
 DBCSR| MPI: My node id                                                        0
 DBCSR| MPI: Number of nodes                                                  64
 DBCSR| OMP: Current number of threads                                         1
 DBCSR| OMP: Max number of threads                                             1
 DBCSR| Split modifier for TAS multiplication algorithm                  1.0E+00


  **** **** ******  **  PROGRAM STARTED AT               2023-11-26 23:33:55.553
 ***** ** ***  *** **   PROGRAM STARTED ON                                 cu054
 **    ****   ******    PROGRAM STARTED BY                                 jxzhu
 ***** **    ** ** **   PROGRAM PROCESS ID                                 44466
  **** **  *******  **  PROGRAM STARTED IN /public/home/jxzhu/tmp_calc/af2075565
                                           805657d94fa4669dad6f4b174b0a4fb/calc/
                                           002400.000/pbc

 CP2K| version string:                                       CP2K version 2022.1
 CP2K| source code revision number:                                  git:2caeb6f
 CP2K| cp2kflags: omp libint fftw3 libxc elpa parallel mpi3 scalapack cosma xsmm
 CP2K|             plumed2 spglib mkl sirius libvori libbqb
 CP2K| is freely available from                            https://www.cp2k.org/
 CP2K| Program compiled at                           Mon Jul 3 17:37:06 CST 2023
 CP2K| Program compiled on                                                 mu003
 CP2K| Program compiled for                                                local
 CP2K| Data directory path                             /public/home/jxzhu/basis/
 CP2K| Input file name                                                 input.inp
 
 GLOBAL| Force Environment number                                              1
 GLOBAL| Basis set file name                                        BASIS_MOLOPT
 GLOBAL| Potential file name                                      GTH_POTENTIALS
 GLOBAL| MM Potential file name                                     MM_POTENTIAL
 GLOBAL| Coordinate file name                                          coord.xyz
 GLOBAL| Method name                                                        CP2K
 GLOBAL| Project name                                                       cp2k
 GLOBAL| Run type                                                   ENERGY_FORCE
 GLOBAL| FFT library                                                       FFTW3
 GLOBAL| Diagonalization library                                            ELPA
 GLOBAL| Minimum number of eigenvectors for ELPA usage                        16
 GLOBAL| Orthonormality check for eigenvectors                          DISABLED
 GLOBAL| Matrix multiplication library                                     COSMA
 GLOBAL| All-to-all communication in single precision                          F
 GLOBAL| FFTs using library dependent lengths                                  F
 GLOBAL| Grid backend                                                       AUTO
 GLOBAL| Global print level                                               MEDIUM
 GLOBAL| MPI I/O enabled                                                       T
 GLOBAL| Total number of message passing processes                            64
 GLOBAL| Number of threads for this process                                    1
 GLOBAL| This output is from process                                           0
 GLOBAL| Stack size for threads created by OpenMP (OMP_STACKSIZE)        default
 GLOBAL| CPU model name                 Intel(R) Xeon(R) Gold 6338 CPU @ 2.00GHz
 GLOBAL| CPUID                                                              1003

 MEMORY| system memory details [Kb]
 MEMORY|                        rank 0           min           max       average
 MEMORY| MemTotal            263619172     263619172     263619172     263619172
 MEMORY| MemFree             210456340     210456340     210456960     210456659
 MEMORY| Buffers                  3320          3320          3320          3320
 MEMORY| Cached                4244872       4244872       4244872       4244872
 MEMORY| Slab                  1808896       1808896       1808896       1808896
 MEMORY| SReclaimable           243828        243828        243828        243828
 MEMORY| MemLikelyFree       214948360     214948360     214948980     214948679


 *** Fundamental physical constants (SI units) ***

 *** Literature: B. J. Mohr and B. N. Taylor,
 ***             CODATA recommended values of the fundamental physical
 ***             constants: 2006, Web Version 5.1
 ***             http://physics.nist.gov/constants

 Speed of light in vacuum [m/s]                             2.99792458000000E+08
 Magnetic constant or permeability of vacuum [N/A**2]       1.25663706143592E-06
 Electric constant or permittivity of vacuum [F/m]          8.85418781762039E-12
 Planck constant (h) [J*s]                                  6.62606896000000E-34
 Planck constant (h-bar) [J*s]                              1.05457162825177E-34
 Elementary charge [C]                                      1.60217648700000E-19
 Electron mass [kg]                                         9.10938215000000E-31
 Electron g factor [ ]                                     -2.00231930436220E+00
 Proton mass [kg]                                           1.67262163700000E-27
 Fine-structure constant                                    7.29735253760000E-03
 Rydberg constant [1/m]                                     1.09737315685270E+07
 Avogadro constant [1/mol]                                  6.02214179000000E+23
 Boltzmann constant [J/K]                                   1.38065040000000E-23
 Atomic mass unit [kg]                                      1.66053878200000E-27
 Bohr radius [m]                                            5.29177208590000E-11

 *** Conversion factors ***

 [u] -> [a.u.]                                              1.82288848426455E+03
 [Angstrom] -> [Bohr] = [a.u.]                              1.88972613288564E+00
 [a.u.] = [Bohr] -> [Angstrom]                              5.29177208590000E-01
 [a.u.] -> [s]                                              2.41888432650478E-17
 [a.u.] -> [fs]                                             2.41888432650478E-02
 [a.u.] -> [J]                                              4.35974393937059E-18
 [a.u.] -> [N]                                              8.23872205491840E-08
 [a.u.] -> [K]                                              3.15774647902944E+05
 [a.u.] -> [kJ/mol]                                         2.62549961709828E+03
 [a.u.] -> [kcal/mol]                                       6.27509468713739E+02
 [a.u.] -> [Pa]                                             2.94210107994716E+13
 [a.u.] -> [bar]                                            2.94210107994716E+08
 [a.u.] -> [atm]                                            2.90362800883016E+08
 [a.u.] -> [eV]                                             2.72113838565563E+01
 [a.u.] -> [Hz]                                             6.57968392072181E+15
 [a.u.] -> [1/cm] (wave numbers)                            2.19474631370540E+05
 [a.u./Bohr**2] -> [1/cm]                                   5.14048714338585E+03
 

 CELL_TOP| Volume [angstrom^3]:                                     10221.806009
 CELL_TOP| Vector a [angstrom    16.869     0.000     0.000   |a| =    16.869000
 CELL_TOP| Vector b [angstrom    -8.434    14.609     0.000   |b| =    16.869015
 CELL_TOP| Vector c [angstrom     0.000     0.000    41.478   |c| =    41.478000
 CELL_TOP| Angle (b,c), alpha [degree]:                                90.000000
 CELL_TOP| Angle (a,c), beta  [degree]:                                90.000000
 CELL_TOP| Angle (a,b), gamma [degree]:                               119.999970
 CELL_TOP| Numerically orthorhombic:                                          NO
 
 GENERATE|  Preliminary Number of Bonds generated:                             0
 GENERATE|  Achieved consistency in connectivity generation.

 CELL| Volume [angstrom^3]:                                         10221.806009
 CELL| Vector a [angstrom]:      16.869     0.000     0.000   |a| =    16.869000
 CELL| Vector b [angstrom]:      -8.434    14.609     0.000   |b| =    16.869015
 CELL| Vector c [angstrom]:       0.000     0.000    41.478   |c| =    41.478000
 CELL| Angle (b,c), alpha [degree]:                                    90.000000
 CELL| Angle (a,c), beta  [degree]:                                    90.000000
 CELL| Angle (a,b), gamma [degree]:                                   119.999970
 CELL| Numerically orthorhombic:                                              NO

 CELL_REF| Volume [angstrom^3]:                                     10221.806009
 CELL_REF| Vector a [angstrom    16.869     0.000     0.000   |a| =    16.869000
 CELL_REF| Vector b [angstrom    -8.434    14.609     0.000   |b| =    16.869015
 CELL_REF| Vector c [angstrom     0.000     0.000    41.478   |c| =    41.478000
 CELL_REF| Angle (b,c), alpha [degree]:                                90.000000
 CELL_REF| Angle (a,c), beta  [degree]:                                90.000000
 CELL_REF| Angle (a,b), gamma [degree]:                               119.999970
 CELL_REF| Numerically orthorhombic:                                          NO

 *******************************************************************************
 *******************************************************************************
 **                                                                           **
 **     #####                         ##              ##                      **
 **    ##   ##            ##          ##              ##                      **
 **   ##     ##                       ##            ######                    **
 **   ##     ##  ##   ##  ##   #####  ##  ##   ####   ##    #####    #####    **
 **   ##     ##  ##   ##  ##  ##      ## ##   ##      ##   ##   ##  ##   ##   **
 **   ##  ## ##  ##   ##  ##  ##      ####     ###    ##   ######   ######    **
 **    ##  ###   ##   ##  ##  ##      ## ##      ##   ##   ##       ##        **
 **     #######   #####   ##   #####  ##  ##  ####    ##    #####   ##        **
 **           ##                                                    ##        **
 **                                                                           **
 **                                                ... make the atoms dance   **
 **                                                                           **
 **            Copyright (C) by CP2K developers group (2000-2022)             **
 **                      J. Chem. Phys. 152, 194103 (2020)                    **
 **                                                                           **
 *******************************************************************************

 DFT| Spin restricted Kohn-Sham (RKS) calculation                            RKS
 DFT| Multiplicity                                                             1
 DFT| Number of spin states                                                    1
 DFT| Charge                                                                   0
 DFT| Self-interaction correction (SIC)                                       NO
 DFT| Cutoffs: density                                              1.000000E-10
 DFT|          gradient                                             1.000000E-10
 DFT|          tau                                                  1.000000E-10
 DFT|          cutoff_smoothing_range                               0.000000E+00
 DFT| XC density smoothing                                                  NONE
 DFT| XC derivatives                                                          PW

 FUNCTIONAL| PBE:
 FUNCTIONAL| J.P.Perdew, K.Burke, M.Ernzerhof, Phys. Rev. Letter, vol. 77, n 18,
 FUNCTIONAL|  pp. 3865-3868, (1996){spin unpolarized}                           

 vdW POTENTIAL|                                                   Pair Potential
 vdW POTENTIAL|          DFT-D3 (Version 3.1)
 vdW POTENTIAL|          Potential Form: S. Grimme et al, JCP 132: 154104 (2010)
 vdW POTENTIAL|          Zero Damping
 vdW POTENTIAL|          Cutoff Radius [Bohr]:                             20.00
 vdW POTENTIAL|          s6 Scaling Factor:                               1.0000
 vdW POTENTIAL|          sr6 Scaling Factor:                              1.2170
 vdW POTENTIAL|          s8 Scaling Factor:                               0.7220
 vdW POTENTIAL|          Cutoff for CN calculation:                   0.1000E-05

 QS| Method:                                                                 GPW
 QS| Density plane wave grid type                        NON-SPHERICAL FULLSPACE
 QS| Number of grid levels:                                                    4
 QS| Density cutoff [a.u.]:                                                200.0
 QS| Multi grid cutoff [a.u.]: 1) grid level                               200.0
 QS|                           2) grid level                                66.7
 QS|                           3) grid level                                22.2
 QS|                           4) grid level                                 7.4
 QS| Grid level progression factor:                                          3.0
 QS| Relative density cutoff [a.u.]:                                        20.0
 QS| Interaction thresholds: eps_pgf_orb:                                3.2E-07
 QS|                         eps_filter_matrix:                          0.0E+00
 QS|                         eps_core_charge:                            1.0E-15
 QS|                         eps_rho_gspace:                             1.0E-13
 QS|                         eps_rho_rspace:                             1.0E-13
 QS|                         eps_gvg_rspace:                             3.2E-07
 QS|                         eps_ppl:                                    1.0E-02
 QS|                         eps_ppnl:                                   3.2E-09


 ATOMIC KIND INFORMATION

  1. Atomic kind: O                                     Number of atoms:     230

     Orbital Basis Set                                        DZVP-MOLOPT-SR-GTH

       Number of orbital shell sets:                                           1
       Number of orbital shells:                                               5
       Number of primitive Cartesian functions:                                5
       Number of Cartesian basis functions:                                   14
       Number of spherical basis functions:                                   13
       Norm type:                                                              2

       Normalised Cartesian orbitals:

                        Set   Shell   Orbital            Exponent    Coefficient

                          1       1    2s               10.389228       0.396646
                                                         3.849621       0.208811
                                                         1.388401      -0.301641
                                                         0.496955      -0.274061
                                                         0.162492      -0.033677

                          1       2    3s               10.389228       0.303673
                                                         3.849621       0.240943
                                                         1.388401      -0.313066
                                                         0.496955      -0.043055
                                                         0.162492       0.213991

                          1       3    3px              10.389228      -1.530415
                                                         3.849621      -1.371928
                                                         1.388401      -0.761951
                                                         0.496955      -0.253695
                                                         0.162492      -0.035541
                          1       3    3py              10.389228      -1.530415
                                                         3.849621      -1.371928
                                                         1.388401      -0.761951
                                                         0.496955      -0.253695
                                                         0.162492      -0.035541
                          1       3    3pz              10.389228      -1.530415
                                                         3.849621      -1.371928
                                                         1.388401      -0.761951
                                                         0.496955      -0.253695
                                                         0.162492      -0.035541

                          1       4    4px              10.389228      -0.565392
                                                         3.849621      -0.038231
                                                         1.388401      -0.382373
                                                         0.496955       0.179070
                                                         0.162492       0.122714
                          1       4    4py              10.389228      -0.565392
                                                         3.849621      -0.038231
                                                         1.388401      -0.382373
                                                         0.496955       0.179070
                                                         0.162492       0.122714
                          1       4    4pz              10.389228      -0.565392
                                                         3.849621      -0.038231
                                                         1.388401      -0.382373
                                                         0.496955       0.179070
                                                         0.162492       0.122714

                          1       5    4dx2             10.389228       1.867377
                                                         3.849621       0.670994
                                                         1.388401       1.353441
                                                         0.496955       0.273538
                                                         0.162492       0.006620
                          1       5    4dxy             10.389228       3.234392
                                                         3.849621       1.162195
                                                         1.388401       2.344229
                                                         0.496955       0.473781
                                                         0.162492       0.011466
                          1       5    4dxz             10.389228       3.234392
                                                         3.849621       1.162195
                                                         1.388401       2.344229
                                                         0.496955       0.473781
                                                         0.162492       0.011466
                          1       5    4dy2             10.389228       1.867377
                                                         3.849621       0.670994
                                                         1.388401       1.353441
                                                         0.496955       0.273538
                                                         0.162492       0.006620
                          1       5    4dyz             10.389228       3.234392
                                                         3.849621       1.162195
                                                         1.388401       2.344229
                                                         0.496955       0.473781
                                                         0.162492       0.011466
                          1       5    4dz2             10.389228       1.867377
                                                         3.849621       0.670994
                                                         1.388401       1.353441
                                                         0.496955       0.273538
                                                         0.162492       0.006620

       Atomic covalent radius [Angstrom]:                                  0.730

       Atomic van der Waals radius [Angstrom]:                             1.520

     GTH Potential information for                                    GTH-PBE-q6

       Description:                       Goedecker-Teter-Hutter pseudopotential
                                           Goedecker et al., PRB 54, 1703 (1996)
                                          Hartwigsen et al., PRB 58, 3641 (1998)
                                                      Krack, TCA 114, 145 (2005)

       Gaussian exponent of the core charge distribution:               8.360253
       Electronic configuration (s p d ...):                               2   4

       Parameters of the local part of the GTH pseudopotential:

                          rloc        C1          C2          C3          C4
                        0.244554  -16.667215    2.487311

       Parameters of the non-local part of the GTH pseudopotential:

                   l      r(l)      h(i,j,l)

                   0    0.220956   18.337458
                   1    0.211332

  2. Atomic kind: H                                     Number of atoms:     460

     Orbital Basis Set                                        DZVP-MOLOPT-SR-GTH

       Number of orbital shell sets:                                           1
       Number of orbital shells:                                               3
       Number of primitive Cartesian functions:                                5
       Number of Cartesian basis functions:                                    5
       Number of spherical basis functions:                                    5
       Norm type:                                                              2

       Normalised Cartesian orbitals:

                        Set   Shell   Orbital            Exponent    Coefficient

                          1       1    2s               10.068468      -0.133023
                                                         2.680223      -0.177618
                                                         0.791502      -0.258419
                                                         0.239116      -0.107525
                                                         0.082193      -0.014019

                          1       2    3s               10.068468       0.344673
                                                         2.680223       1.819821
                                                         0.791502      -0.999069
                                                         0.239116       0.017430
                                                         0.082193       0.082660

                          1       3    3px              10.068468       0.155326
                                                         2.680223       0.367157
                                                         0.791502       0.311480
                                                         0.239116       0.080105
                                                         0.082193       0.033440
                          1       3    3py              10.068468       0.155326
                                                         2.680223       0.367157
                                                         0.791502       0.311480
                                                         0.239116       0.080105
                                                         0.082193       0.033440
                          1       3    3pz              10.068468       0.155326
                                                         2.680223       0.367157
                                                         0.791502       0.311480
                                                         0.239116       0.080105
                                                         0.082193       0.033440

       Atomic covalent radius [Angstrom]:                                  0.320

       Atomic van der Waals radius [Angstrom]:                             1.090

     GTH Potential information for                                    GTH-PBE-q1

       Description:                       Goedecker-Teter-Hutter pseudopotential
                                           Goedecker et al., PRB 54, 1703 (1996)
                                          Hartwigsen et al., PRB 58, 3641 (1998)
                                                      Krack, TCA 114, 145 (2005)

       Gaussian exponent of the core charge distribution:              12.500000
       Electronic configuration (s p d ...):                                   1

       Parameters of the local part of the GTH pseudopotential:

                          rloc        C1          C2          C3          C4
                        0.200000   -4.178900    0.724463

  3. Atomic kind: Pt                                    Number of atoms:     216

     Orbital Basis Set                      DZVP-A5-Q10-323-MOL-T1-DERIVED_SET-1

       Number of orbital shell sets:                                           1
       Number of orbital shells:                                               6
       Number of primitive Cartesian functions:                                5
       Number of Cartesian basis functions:                                   23
       Number of spherical basis functions:                                   20
       Norm type:                                                              2

       Normalised Cartesian orbitals:

                        Set   Shell   Orbital            Exponent    Coefficient

                          1       1    2s                2.521825       0.177473
                                                         1.453920      -0.063399
                                                         0.614053      -0.407089
                                                         0.232656       0.262254
                                                         0.074788       0.047371

                          1       2    3s                2.521825      -0.049056
                                                         1.453920       0.044904
                                                         0.614053      -0.009756
                                                         0.232656      -0.144709
                                                         0.074788       0.144085

                          1       3    3px               2.521825      -0.317572
                                                         1.453920       0.534826
                                                         0.614053      -0.489458
                                                         0.232656       0.245631
                                                         0.074788       0.018221
                          1       3    3py               2.521825      -0.317572
                                                         1.453920       0.534826
                                                         0.614053      -0.489458
                                                         0.232656       0.245631
                                                         0.074788       0.018221
                          1       3    3pz               2.521825      -0.317572
                                                         1.453920       0.534826
                                                         0.614053      -0.489458
                                                         0.232656       0.245631
                                                         0.074788       0.018221

                          1       4    4dx2              2.521825       3.008522
                                                         1.453920      -1.224251
                                                         0.614053       0.225691
                                                         0.232656       0.125144
                                                         0.074788      -0.015348
                          1       4    4dxy              2.521825       5.210912
                                                         1.453920      -2.120465
                                                         0.614053       0.390909
                                                         0.232656       0.216756
                                                         0.074788      -0.026584
                          1       4    4dxz              2.521825       5.210912
                                                         1.453920      -2.120465
                                                         0.614053       0.390909
                                                         0.232656       0.216756
                                                         0.074788      -0.026584
                          1       4    4dy2              2.521825       3.008522
                                                         1.453920      -1.224251
                                                         0.614053       0.225691
                                                         0.232656       0.125144
                                                         0.074788      -0.015348
                          1       4    4dyz              2.521825       5.210912
                                                         1.453920      -2.120465
                                                         0.614053       0.390909
                                                         0.232656       0.216756
                                                         0.074788      -0.026584
                          1       4    4dz2              2.521825       3.008522
                                                         1.453920      -1.224251
                                                         0.614053       0.225691
                                                         0.232656       0.125144
                                                         0.074788      -0.015348

                          1       5    5dx2              2.521825       0.698026
                                                         1.453920      -1.511486
                                                         0.614053      -0.335394
                                                         0.232656      -0.025564
                                                         0.074788      -0.002699
                          1       5    5dxy              2.521825       1.209017
                                                         1.453920      -2.617970
                                                         0.614053      -0.580920
                                                         0.232656      -0.044277
                                                         0.074788      -0.004674
                          1       5    5dxz              2.521825       1.209017
                                                         1.453920      -2.617970
                                                         0.614053      -0.580920
                                                         0.232656      -0.044277
                                                         0.074788      -0.004674
                          1       5    5dy2              2.521825       0.698026
                                                         1.453920      -1.511486
                                                         0.614053      -0.335394
                                                         0.232656      -0.025564
                                                         0.074788      -0.002699
                          1       5    5dyz              2.521825       1.209017
                                                         1.453920      -2.617970
                                                         0.614053      -0.580920
                                                         0.232656      -0.044277
                                                         0.074788      -0.004674
                          1       5    5dz2              2.521825       0.698026
                                                         1.453920      -1.511486
                                                         0.614053      -0.335394
                                                         0.232656      -0.025564
                                                         0.074788      -0.002699

                          1       6    6dx2              2.521825       0.831079
                                                         1.453920      -0.709226
                                                         0.614053      -0.137351
                                                         0.232656       0.068642
                                                         0.074788       0.011745
                          1       6    6dxy              2.521825       1.439472
                                                         1.453920      -1.228415
                                                         0.614053      -0.237899
                                                         0.232656       0.118891
                                                         0.074788       0.020343
                          1       6    6dxz              2.521825       1.439472
                                                         1.453920      -1.228415
                                                         0.614053      -0.237899
                                                         0.232656       0.118891
                                                         0.074788       0.020343
                          1       6    6dy2              2.521825       0.831079
                                                         1.453920      -0.709226
                                                         0.614053      -0.137351
                                                         0.232656       0.068642
                                                         0.074788       0.011745
                          1       6    6dyz              2.521825       1.439472
                                                         1.453920      -1.228415
                                                         0.614053      -0.237899
                                                         0.232656       0.118891
                                                         0.074788       0.020343
                          1       6    6dz2              2.521825       0.831079
                                                         1.453920      -0.709226
                                                         0.614053      -0.137351
                                                         0.232656       0.068642
                                                         0.074788       0.011745

       Atomic covalent radius [Angstrom]:                                  1.300

       Atomic van der Waals radius [Angstrom]:                             1.750

     GTH Potential information for                                   GTH-PBE-q10

       Description:                       Goedecker-Teter-Hutter pseudopotential
                                           Goedecker et al., PRB 54, 1703 (1996)
                                          Hartwigsen et al., PRB 58, 3641 (1998)
                                                      Krack, TCA 114, 145 (2005)

       Gaussian exponent of the core charge distribution:               1.317676
       Electronic configuration (s p d ...):                           1   0   9

       Parameters of the local part of the GTH pseudopotential:

                          rloc        C1          C2          C3          C4
                        0.616000   11.313635

       Parameters of the non-local part of the GTH pseudopotential:

                   l      r(l)      h(i,j,l)

                   0    0.550904    4.733491   -1.784594
                                   -1.784594    2.303901
                   1    0.674138    2.534798   -1.778066
                                   -1.778066    2.103836
                   2    0.457392   -7.264011    2.558665
                                    2.558665   -2.901253


 MOLECULE KIND INFORMATION


 All atoms are their own molecule, skipping detailed information


 TOTAL NUMBERS AND MAXIMUM NUMBERS

  Total number of            - Atomic kinds:                                   3
                             - Atoms:                                        906
                             - Shell sets:                                   906
                             - Shells:                                      3826
                             - Primitive Cartesian functions:               4530
                             - Cartesian basis functions:                  10488
                             - Spherical basis functions:                   9610

  Maximum angular momentum of- Orbital basis functions:                        2
                             - Local part of the GTH pseudopotential:          2
                             - Non-local part of the GTH pseudopotential:      4


 MODULE QUICKSTEP:  ATOMIC COORDINATES IN angstrom

 Atom  Kind  Element       X           Y           Z          Z(eff)       Mass
    1   1 O    8       6.060000   -3.780000    8.630000       6.0000     15.9994
    2   2 H    1       6.170001   -4.040000    7.690001       1.0000      1.0079
    3   2 H    1       5.010000   -3.510000    8.770000       1.0000      1.0079
    4   1 O    8      10.110001    1.270000   11.980001       6.0000     15.9994
    5   2 H    1       9.990001    0.820000   11.110001       1.0000      1.0079
    6   2 H    1      10.800000    0.690000   12.370001       1.0000      1.0079
    7   1 O    8     -12.770000  -28.800001   14.840001       6.0000     15.9994
    8   2 H    1     -12.090001  -28.170002   15.160000       1.0000      1.0079
    9   2 H    1     -13.370000  -28.220001   14.290000       1.0000      1.0079
   10   1 O    8      16.570000    6.210001    9.070001       6.0000     15.9994
   11   2 H    1      16.639999    6.180000    8.090000       1.0000      1.0079
   12   2 H    1      15.640001    6.500000    9.160001       1.0000      1.0079
   13   1 O    8      22.680000  -37.900002   22.550001       6.0000     15.9994
   14   2 H    1      22.800003  -38.520004   21.820002       1.0000      1.0079
   15   2 H    1      22.340002  -38.440002   23.280001       1.0000      1.0079
   16   1 O    8      17.880001   25.730001   22.290001       6.0000     15.9994
   17   2 H    1      17.690001   26.320002   21.500000       1.0000      1.0079
   18   2 H    1      17.700001   24.810001   22.080002       1.0000      1.0079
   19   1 O    8     -14.460001   11.580001   32.029999       6.0000     15.9994
   20   2 H    1     -14.380001   11.440001   31.030003       1.0000      1.0079
   21   2 H    1     -14.340000   10.710001   32.480003       1.0000      1.0079
   22   1 O    8       9.340000   26.470001    8.160001       6.0000     15.9994
   23   2 H    1       8.530001   26.950001    8.630000       1.0000      1.0079
   24   2 H    1      17.430000   10.980000    7.890000       1.0000      1.0079
   25   1 O    8     -25.340002  -31.310001   14.800000       6.0000     15.9994
   26   2 H    1     -25.170002  -30.510002   14.230001       1.0000      1.0079
   27   2 H    1     -26.230001  -31.200001   15.200001       1.0000      1.0079
   28   1 O    8      14.850000   14.660001   23.920002       6.0000     15.9994
   29   2 H    1      15.240001   14.290000   23.090000       1.0000      1.0079
   30   2 H    1      15.490000   14.550000   24.640003       1.0000      1.0079
   31   1 O    8      17.620001  -10.880001   22.800003       6.0000     15.9994
   32   2 H    1      18.280001  -11.470001   22.400000       1.0000      1.0079
   33   2 H    1      16.850000  -11.480000   23.140001       1.0000      1.0079
   34   1 O    8     -11.160001  -47.690002   13.020000       6.0000     15.9994
   35   2 H    1     -11.870001  -48.290001   13.220000       1.0000      1.0079
   36   2 H    1     -11.080000  -47.500000   12.040001       1.0000      1.0079
   37   1 O    8     -20.950001  -24.510002   24.890001       6.0000     15.9994
   38   2 H    1     -21.880001  -24.680002   24.900000       1.0000      1.0079
   39   2 H    1     -20.680000  -24.970001   25.800001       1.0000      1.0079
   40   1 O    8      30.140001   20.250000   12.490001       6.0000     15.9994
   41   2 H    1      29.980001   19.310001   12.090001       1.0000      1.0079
   42   2 H    1      29.410002   20.800001   12.170000       1.0000      1.0079
   43   1 O    8      -4.810000  -11.530000   30.100002       6.0000     15.9994
   44   2 H    1      -5.760000  -11.200000   29.890001       1.0000      1.0079
   45   2 H    1      -4.720000  -12.470001   29.770002       1.0000      1.0079
   46   1 O    8       4.030000   19.330002   29.900002       6.0000     15.9994
   47   2 H    1       3.970000   18.910000   30.820004       1.0000      1.0079
   48   2 H    1       3.510000   20.160000   29.910002       1.0000      1.0079
   49   1 O    8     -13.920001   21.940001   29.470001       6.0000     15.9994
   50   2 H    1     -13.490001   22.460001   28.760002       1.0000      1.0079
   51   2 H    1     -14.860001   22.210003   29.640003       1.0000      1.0079
   52   1 O    8      -9.890000    7.050000   11.240001       6.0000     15.9994
   53   2 H    1     -10.320001    7.790000   10.860001       1.0000      1.0079
   54   2 H    1     -10.660001    6.560000   11.760000       1.0000      1.0079
   55   1 O    8       5.720000  -13.400001   29.550001       6.0000     15.9994
   56   2 H    1       6.610000  -13.800001   29.850002       1.0000      1.0079
   57   2 H    1       5.610001  -12.630000   30.200003       1.0000      1.0079
   58   1 O    8      19.570002    2.540000    9.540001       6.0000     15.9994
   59   2 H    1      18.930000    3.210000    9.860001       1.0000      1.0079
   60   2 H    1      19.550001    2.550000    8.560000       1.0000      1.0079
   61   1 O    8     -20.310001   37.680000   27.420002       6.0000     15.9994
   62   2 H    1     -19.390001   37.410004   27.170002       1.0000      1.0079
   63   2 H    1      -3.330000   38.680004   27.560001       1.0000      1.0079
   64   1 O    8      36.130001  -33.880001   18.740002       6.0000     15.9994
   65   2 H    1      36.230003  -34.710003   18.210001       1.0000      1.0079
   66   2 H    1      52.110004  -33.880001   19.120001       1.0000      1.0079
   67   1 O    8      -7.670000   -5.270000   20.459999       6.0000     15.9994
   68   2 H    1     -15.340000    9.090000   19.790001       1.0000      1.0079
   69   2 H    1      -7.100000   -5.090000   21.290001       1.0000      1.0079
   70   1 O    8      -0.370000   12.110001   29.810001       6.0000     15.9994
   71   2 H    1      -0.990000   12.830001   29.640003       1.0000      1.0079
   72   2 H    1      -0.530000   11.760000   30.710001       1.0000      1.0079
   73   1 O    8     -26.610001   -4.000000   32.490002       6.0000     15.9994
   74   2 H    1     -26.130001   -4.790000   32.240002       1.0000      1.0079
   75   2 H    1     -26.070002   -3.350000   32.960003       1.0000      1.0079
   76   1 O    8     -16.790001   -6.080000   22.290001       6.0000     15.9994
   77   2 H    1     -16.160000   -6.540000   22.920000       1.0000      1.0079
   78   2 H    1     -16.730001   -6.510000   21.450003       1.0000      1.0079
   79   1 O    8      -0.610000  -38.590004   14.920001       6.0000     15.9994
   80   2 H    1      -0.190000  -38.190002   15.730000       1.0000      1.0079
   81   2 H    1      -0.070000  -38.160004   14.170000       1.0000      1.0079
   82   1 O    8      16.900002  -18.040001   18.410000       6.0000     15.9994
   83   2 H    1      17.170002  -18.610001   19.170000       1.0000      1.0079
   84   2 H    1      17.680000  -17.630001   18.000000       1.0000      1.0079
   85   1 O    8      -1.590000   16.620001   11.190001       6.0000     15.9994
   86   2 H    1      -0.900000   17.320002   11.310000       1.0000      1.0079
   87   2 H    1      -1.360000   15.940001   11.840000       1.0000      1.0079
   88   1 O    8       8.750001   -3.700000   12.560000       6.0000     15.9994
   89   2 H    1      -8.310000   -3.140000   13.320000       1.0000      1.0079
   90   2 H    1       8.020000   -3.750000   11.850000       1.0000      1.0079
   91   1 O    8       1.590000   -3.540000   11.460000       6.0000     15.9994
   92   2 H    1       2.510000   -3.190000   11.450001       1.0000      1.0079
   93   2 H    1       1.440000   -3.280000   12.350000       1.0000      1.0079
   94   1 O    8      19.600000   56.430000   18.380001       6.0000     15.9994
   95   2 H    1      19.200001   56.920006   17.600000       1.0000      1.0079
   96   2 H    1      19.560001   55.440002   18.230001       1.0000      1.0079
   97   1 O    8     -24.860001  -14.530001    8.970000       6.0000     15.9994
   98   2 H    1     -24.820002  -14.630001    9.950001       1.0000      1.0079
   99   2 H    1     -23.860001  -14.520000    8.830000       1.0000      1.0079
  100   1 O    8       1.130000    8.410000   10.080000       6.0000     15.9994
  101   2 H    1       0.630000    7.670000    9.660000       1.0000      1.0079
  102   2 H    1       0.450000    9.120001   10.380001       1.0000      1.0079
  103   1 O    8      29.450001    2.510000    9.100000       6.0000     15.9994
  104   2 H    1      29.540003    1.550000    9.120001       1.0000      1.0079
  105   2 H    1      11.560000    2.650000    8.940001       1.0000      1.0079
  106   1 O    8      -2.900000   15.280001    8.800000       6.0000     15.9994
  107   2 H    1      -2.410000   15.800000    9.500000       1.0000      1.0079
  108   2 H    1      -3.070000   15.810001    7.970000       1.0000      1.0079
  109   1 O    8      28.990002   12.280001   15.090000       6.0000     15.9994
  110   2 H    1      28.110001   12.730000   15.170001       1.0000      1.0079
  111   2 H    1      28.950003   11.300000   15.240001       1.0000      1.0079
  112   1 O    8     -40.670006   -1.000000   20.790001       6.0000     15.9994
  113   2 H    1     -41.580002   -1.340000   21.030003       1.0000      1.0079
  114   2 H    1     -40.730003   -0.210000   20.210001       1.0000      1.0079
  115   1 O    8      13.560000   19.630001   15.080000       6.0000     15.9994
  116   2 H    1      13.160001   19.800001   14.180001       1.0000      1.0079
  117   2 H    1      14.510001   19.860001   15.040001       1.0000      1.0079
  118   1 O    8     -23.170002   14.600000   16.590000       6.0000     15.9994
  119   2 H    1     -22.330000   14.760000   16.090000       1.0000      1.0079
  120   2 H    1     -23.860001   14.930000   16.049999       1.0000      1.0079
  121   1 O    8       2.160000   -8.360001   19.230001       6.0000     15.9994
  122   2 H    1       2.790000   -7.660000   19.590000       1.0000      1.0079
  123   2 H    1       1.590000   -8.790001   19.900002       1.0000      1.0079
  124   1 O    8     -29.240000   15.380001   33.279999       6.0000     15.9994
  125   2 H    1     -37.520000   30.970001   32.930000       1.0000      1.0079
  126   2 H    1     -30.190001   15.210000   33.000000       1.0000      1.0079
  127   1 O    8     -10.920000  -15.850000   13.320000       6.0000     15.9994
  128   2 H    1     -11.020000  -16.820000   13.070001       1.0000      1.0079
  129   2 H    1     -19.080002   -0.720000   12.490001       1.0000      1.0079
  130   1 O    8     -10.120001    2.750000   23.860001       6.0000     15.9994
  131   2 H    1     -10.050000    3.040000   24.860001       1.0000      1.0079
  132   2 H    1     -10.160000    1.790000   23.900002       1.0000      1.0079
  133   1 O    8       0.160000   24.200001    8.210000       6.0000     15.9994
  134   2 H    1       0.480000   25.120001    8.380001       1.0000      1.0079
  135   2 H    1      -0.780000   24.209999    8.500000       1.0000      1.0079
  136   1 O    8     -30.440002    7.970000   30.090000       6.0000     15.9994
  137   2 H    1     -30.500002    8.370000   31.000002       1.0000      1.0079
  138   2 H    1     -29.780003    8.470000   29.560001       1.0000      1.0079
  139   1 O    8     -14.020000   -0.430000   32.200005       6.0000     15.9994
  140   2 H    1     -13.050001   -0.330000   32.310001       1.0000      1.0079
  141   2 H    1     -14.320001   -0.970000   32.980000       1.0000      1.0079
  142   1 O    8       6.300001   14.290000   15.870001       6.0000     15.9994
  143   2 H    1       6.100000   15.220001   15.620001       1.0000      1.0079
  144   2 H    1       6.640000   13.920001   14.980001       1.0000      1.0079
  145   1 O    8     -11.400002   25.940001   18.720001       6.0000     15.9994
  146   2 H    1       6.370000   25.930002   19.010002       1.0000      1.0079
  147   2 H    1     -11.890000   26.250002   19.560001       1.0000      1.0079
  148   1 O    8     -31.390001   16.620001   27.910002       6.0000     15.9994
  149   2 H    1     -31.220001   16.180000   27.080002       1.0000      1.0079
  150   2 H    1     -31.160002   15.950001   28.640001       1.0000      1.0079
  151   1 O    8      -6.690001   -8.560000   22.920000       6.0000     15.9994
  152   2 H    1      -7.350000   -8.440001   22.200001       1.0000      1.0079
  153   2 H    1      -5.840001   -8.320000   22.500000       1.0000      1.0079
  154   1 O    8     -29.270000  -22.060001   19.390001       6.0000     15.9994
  155   2 H    1     -29.360001  -22.850000   18.710001       1.0000      1.0079
  156   2 H    1     -29.910002  -21.380001   19.010002       1.0000      1.0079
  157   1 O    8      20.510002  -17.040001    9.450001       6.0000     15.9994
  158   2 H    1      20.300003  -17.560001    8.650001       1.0000      1.0079
  159   2 H    1      19.710001  -16.790001   10.030001       1.0000      1.0079
  160   1 O    8      -5.070000   -5.960000    9.010000       6.0000     15.9994
  161   2 H    1      -5.360000   -5.700001    8.080000       1.0000      1.0079
  162   2 H    1      -5.970000   -5.970000    9.510000       1.0000      1.0079
  163   1 O    8      40.820004   -8.960000   26.230001       6.0000     15.9994
  164   2 H    1      41.040001   -7.970000   26.150000       1.0000      1.0079
  165   2 H    1      40.700001   -9.140000   27.200001       1.0000      1.0079
  166   1 O    8       9.130000  -10.180000   24.840002       6.0000     15.9994
  167   2 H    1       8.430000   -9.600000   25.430002       1.0000      1.0079
  168   2 H    1       9.530001   -9.510000   24.270000       1.0000      1.0079
  169   1 O    8     -52.980003   -1.240000   22.480001       6.0000     15.9994
  170   2 H    1     -35.750004   -0.620000   21.840000       1.0000      1.0079
  171   2 H    1     -36.190002   -2.180000   22.010002       1.0000      1.0079
  172   1 O    8       9.290000  -22.470001   12.710000       6.0000     15.9994
  173   2 H    1       9.440001  -21.800001   13.420000       1.0000      1.0079
  174   2 H    1       8.440001  -22.320002   12.270001       1.0000      1.0079
  175   1 O    8       5.890000  -20.730001   22.900002       6.0000     15.9994
  176   2 H    1       6.840000  -20.930002   22.850000       1.0000      1.0079
  177   2 H    1       5.410000  -21.440001   22.490002       1.0000      1.0079
  178   1 O    8      -5.260000   23.720001   32.490002       6.0000     15.9994
  179   2 H    1      -5.780000   23.230001   33.170002       1.0000      1.0079
  180   2 H    1      -4.290000   23.500002   32.580002       1.0000      1.0079
  181   1 O    8      17.940001   15.210000    8.960000       6.0000     15.9994
  182   2 H    1      18.690001   14.860001    8.470000       1.0000      1.0079
  183   2 H    1      17.330000   14.320001    9.150001       1.0000      1.0079
  184   1 O    8       8.750001  -22.390001   17.160000       6.0000     15.9994
  185   2 H    1       7.920001  -22.260000   17.760002       1.0000      1.0079
  186   2 H    1       9.480001  -22.500000   17.780001       1.0000      1.0079
  187   1 O    8     -23.350000   49.870003   12.500000       6.0000     15.9994
  188   2 H    1     -23.780001   49.350006   11.810001       1.0000      1.0079
  189   2 H    1     -23.800001   50.750004   12.560000       1.0000      1.0079
  190   1 O    8      13.410001   18.220001   19.010002       6.0000     15.9994
  191   2 H    1      13.050001   17.520000   19.590000       1.0000      1.0079
  192   2 H    1      12.660000   18.580000   18.530001       1.0000      1.0079
  193   1 O    8       6.830000   -7.900000   32.540001       6.0000     15.9994
  194   2 H    1       6.720000   -7.920001   33.540001       1.0000      1.0079
  195   2 H    1       7.310000   -8.810000   32.410004       1.0000      1.0079
  196   1 O    8     -31.650002  -13.830000   15.730000       6.0000     15.9994
  197   2 H    1     -31.010000  -13.030001   15.680000       1.0000      1.0079
  198   2 H    1     -32.470001  -13.400001   15.380001       1.0000      1.0079
  199   1 O    8     -22.660000   11.930000   30.630001       6.0000     15.9994
  200   2 H    1     -21.740000   11.580001   30.300003       1.0000      1.0079
  201   2 H    1     -22.540001   12.920000   30.940001       1.0000      1.0079
  202   1 O    8      16.300001   14.980001   13.200001       6.0000     15.9994
  203   2 H    1      17.170002   15.110001   12.750001       1.0000      1.0079
  204   2 H    1      16.250002   15.680000   13.870001       1.0000      1.0079
  205   1 O    8      15.110001    3.270000   11.190001       6.0000     15.9994
  206   2 H    1       6.470000   18.350000   10.310000       1.0000      1.0079
  207   2 H    1      14.760000    4.040000   11.760000       1.0000      1.0079
  208   1 O    8     -24.600000  -10.290001   10.650001       6.0000     15.9994
  209   2 H    1     -25.340002  -10.870000   11.090001       1.0000      1.0079
  210   2 H    1     -25.120001   -9.630001   10.090000       1.0000      1.0079
  211   1 O    8      -1.490000   -0.060000   19.600000       6.0000     15.9994
  212   2 H    1      -1.430000    0.890000   19.760000       1.0000      1.0079
  213   2 H    1      -2.230000   -0.180000   18.990000       1.0000      1.0079
  214   1 O    8      22.610001    8.770000   31.900002       6.0000     15.9994
  215   2 H    1      22.630001    8.980000   30.900002       1.0000      1.0079
  216   2 H    1      23.020000    7.880001   32.110001       1.0000      1.0079
  217   1 O    8     -46.620003   10.520000   16.710001       6.0000     15.9994
  218   2 H    1     -47.230000   11.310000   16.520000       1.0000      1.0079
  219   2 H    1     -45.770000   10.920000   17.030001       1.0000      1.0079
  220   1 O    8      38.410000    5.290000   33.430000       6.0000     15.9994
  221   2 H    1      39.300003    5.640000   33.190002       1.0000      1.0079
  222   2 H    1      38.300003    4.350000   33.130001       1.0000      1.0079
  223   1 O    8      10.450001   -1.800000   11.460000       6.0000     15.9994
  224   2 H    1      26.880001   -2.650000   11.660000       1.0000      1.0079
  225   2 H    1      11.110001   -1.730000   12.180000       1.0000      1.0079
  226   1 O    8      12.500000   36.660000   25.140001       6.0000     15.9994
  227   2 H    1      12.800001   37.000004   25.950001       1.0000      1.0079
  228   2 H    1      29.480001   35.670002   25.210001       1.0000      1.0079
  229   1 O    8     -14.790001   31.380003   32.580002       6.0000     15.9994
  230   2 H    1     -14.600000   30.380001   32.470001       1.0000      1.0079
  231   2 H    1     -14.840001   31.530001   33.580002       1.0000      1.0079
  232   1 O    8       0.360000   -3.690000   29.570004       6.0000     15.9994
  233   2 H    1       0.470000   -3.570000   28.580000       1.0000      1.0079
  234   2 H    1       1.160000   -3.330000   30.020000       1.0000      1.0079
  235   1 O    8      -4.580000   31.220001   19.660000       6.0000     15.9994
  236   2 H    1      -4.430000   32.130001   19.270000       1.0000      1.0079
  237   2 H    1      -5.460000   30.940001   19.390001       1.0000      1.0079
  238   1 O    8       5.070000    5.660000   29.520000       6.0000     15.9994
  239   2 H    1      -3.980000   20.990002   29.780003       1.0000      1.0079
  240   2 H    1       4.650001    4.780000   29.500000       1.0000      1.0079
  241   1 O    8      18.220001   -4.330000   33.010002       6.0000     15.9994
  242   2 H    1      19.020000   -3.910000   32.690002       1.0000      1.0079
  243   2 H    1      17.480000   -3.740000   32.790001       1.0000      1.0079
  244   1 O    8       1.450000   -7.110000   24.740002       6.0000     15.9994
  245   2 H    1       2.420000   -6.920000   25.100002       1.0000      1.0079
  246   2 H    1       0.850000   -6.880000   25.480001       1.0000      1.0079
  247   1 O    8      17.420002    2.130000   27.630003       6.0000     15.9994
  248   2 H    1      16.580002    1.580000   27.520000       1.0000      1.0079
  249   2 H    1      17.370001    2.760000   26.840000       1.0000      1.0079
  250   1 O    8      28.960001   -9.140000   17.410000       6.0000     15.9994
  251   2 H    1      28.060001   -9.290000   17.800001       1.0000      1.0079
  252   2 H    1      28.980003   -9.290000   16.420000       1.0000      1.0079
  253   1 O    8      -6.230001   -3.320000   27.270002       6.0000     15.9994
  254   2 H    1      -7.140000   -3.640000   27.400002       1.0000      1.0079
  255   2 H    1      -6.240000   -2.890000   26.360001       1.0000      1.0079
  256   1 O    8       7.710000  -18.990000   19.440001       6.0000     15.9994
  257   2 H    1       7.030000  -18.530001   20.040001       1.0000      1.0079
  258   2 H    1       7.430000  -19.920002   19.190002       1.0000      1.0079
  259   1 O    8     -25.520000   23.570002   16.920000       6.0000     15.9994
  260   2 H    1     -25.530003   24.460001   17.380001       1.0000      1.0079
  261   2 H    1     -26.080000   23.110001   17.600000       1.0000      1.0079
  262   1 O    8      -4.050000   -8.180000   21.880001       6.0000     15.9994
  263   2 H    1      -4.090000   -8.090000   20.860003       1.0000      1.0079
  264   2 H    1      -3.960000   -9.190001   22.200001       1.0000      1.0079
  265   1 O    8      27.630003  -13.040000   13.150001       6.0000     15.9994
  266   2 H    1      27.340002  -12.110001   13.570002       1.0000      1.0079
  267   2 H    1      36.450001    1.930000   12.370001       1.0000      1.0079
  268   1 O    8       8.170000  -12.440001   23.150002       6.0000     15.9994
  269   2 H    1       8.880001  -13.210001   23.100002       1.0000      1.0079
  270   2 H    1       8.510000  -11.700001   23.720001       1.0000      1.0079
  271   1 O    8       0.830000   -2.070000   13.830000       6.0000     15.9994
  272   2 H    1       0.150000   -2.690000   14.130001       1.0000      1.0079
  273   2 H    1       0.470000   -1.240000   13.490001       1.0000      1.0079
  274   1 O    8      -4.060000  -13.900002   28.900002       6.0000     15.9994
  275   2 H    1      -4.900000  -14.430000   28.650002       1.0000      1.0079
  276   2 H    1      -4.090000  -13.400001   28.010002       1.0000      1.0079
  277   1 O    8      10.670000    8.280001   10.559999       6.0000     15.9994
  278   2 H    1      -6.420000    9.050000   11.130000       1.0000      1.0079
  279   2 H    1      10.120001    7.570000   10.910001       1.0000      1.0079
  280   1 O    8      33.320004  -10.030001   30.050001       6.0000     15.9994
  281   2 H    1      32.389999  -10.110001   29.830000       1.0000      1.0079
  282   2 H    1      33.910004   -9.860001   29.220001       1.0000      1.0079
  283   1 O    8      14.230001  -19.950001   12.370001       6.0000     15.9994
  284   2 H    1       5.080000   -4.720000   12.470001       1.0000      1.0079
  285   2 H    1      15.030001  -19.750002   12.960000       1.0000      1.0079
  286   1 O    8     -38.520004   23.640001   27.210003       6.0000     15.9994
  287   2 H    1     -22.260000   24.470001   27.200001       1.0000      1.0079
  288   2 H    1     -39.020000   23.010002   26.730001       1.0000      1.0079
  289   1 O    8      -4.730000    3.210000   15.820000       6.0000     15.9994
  290   2 H    1      -3.810000    3.040000   15.570001       1.0000      1.0079
  291   2 H    1      -5.340000    3.710000   15.190001       1.0000      1.0079
  292   1 O    8      19.550001  -14.580001   26.060001       6.0000     15.9994
  293   2 H    1      20.060001  -15.040001   26.730001       1.0000      1.0079
  294   2 H    1      20.120001  -14.400001   25.320000       1.0000      1.0079
  295   1 O    8       5.180000   12.670001   32.160000       6.0000     15.9994
  296   2 H    1       4.400000   12.100000   32.310001       1.0000      1.0079
  297   2 H    1       4.950000   13.550000   32.590000       1.0000      1.0079
  298   1 O    8       0.860000   18.780001   27.560001       6.0000     15.9994
  299   2 H    1       1.160000   19.020000   26.590002       1.0000      1.0079
  300   2 H    1       1.300000   17.880001   27.780001       1.0000      1.0079
  301   1 O    8     -13.070001    6.140000    8.820001       6.0000     15.9994
  302   2 H    1     -13.750001    5.770000    8.260000       1.0000      1.0079
  303   2 H    1     -13.140000    7.180000    8.730000       1.0000      1.0079
  304   1 O    8       7.420001   -6.660000   23.220001       6.0000     15.9994
  305   2 H    1       6.880000   -7.360001   22.880001       1.0000      1.0079
  306   2 H    1       8.010000   -6.310000   22.550001       1.0000      1.0079
  307   1 O    8     -29.370001   14.010000   17.960001       6.0000     15.9994
  308   2 H    1     -28.720001   14.120001   17.220001       1.0000      1.0079
  309   2 H    1     -29.580002   14.940001   18.300001       1.0000      1.0079
  310   1 O    8     -16.430000   12.900001   33.440002       6.0000     15.9994
  311   2 H    1     -16.300001   13.820001   32.990002       1.0000      1.0079
  312   2 H    1     -15.700001   12.330000   32.950001       1.0000      1.0079
  313   1 O    8      -9.100000   10.710001   14.730001       6.0000     15.9994
  314   2 H    1      -9.710001   10.510000   13.960000       1.0000      1.0079
  315   2 H    1      -9.630001   11.130000   15.510001       1.0000      1.0079
  316   1 O    8       1.200000  -11.010000   32.130001       6.0000     15.9994
  317   2 H    1       0.310000  -10.900001   31.650002       1.0000      1.0079
  318   2 H    1       0.830000  -11.490001   32.920002       1.0000      1.0079
  319   1 O    8      -8.330001  -14.670001   11.680001       6.0000     15.9994
  320   2 H    1      -7.840000  -13.860001   11.970000       1.0000      1.0079
  321   2 H    1      -9.260000  -14.400001   11.520000       1.0000      1.0079
  322   1 O    8      29.940002  -16.960001   21.170002       6.0000     15.9994
  323   2 H    1      29.110003  -16.460001   20.960003       1.0000      1.0079
  324   2 H    1      29.630001  -17.350002   22.050001       1.0000      1.0079
  325   1 O    8     -10.640000   -1.750000   16.090000       6.0000     15.9994
  326   2 H    1     -11.560000   -1.720000   15.600000       1.0000      1.0079
  327   2 H    1     -10.770000   -2.440000   16.720001       1.0000      1.0079
  328   1 O    8      -3.770000   -8.030001   25.040001       6.0000     15.9994
  329   2 H    1      -3.240000   -7.610001   24.340000       1.0000      1.0079
  330   2 H    1      -4.530000   -7.400000   25.010002       1.0000      1.0079
  331   1 O    8     -18.040001   45.380001   32.470001       6.0000     15.9994
  332   2 H    1     -18.850000   45.919998   32.340004       1.0000      1.0079
  333   2 H    1     -17.850000   45.510002   33.390003       1.0000      1.0079
  334   1 O    8      -5.720000  -14.870001   21.440001       6.0000     15.9994
  335   2 H    1      -6.460000  -15.270000   20.910000       1.0000      1.0079
  336   2 H    1      -6.240000  -14.910001   22.220001       1.0000      1.0079
  337   1 O    8      13.800001   32.370003   32.430004       6.0000     15.9994
  338   2 H    1      22.260000   18.350000   33.209999       1.0000      1.0079
  339   2 H    1      -2.110000   32.000000   32.470001       1.0000      1.0079
  340   1 O    8      22.870003   19.410002   12.960000       6.0000     15.9994
  341   2 H    1      23.210001   19.780001   13.830000       1.0000      1.0079
  342   2 H    1      22.000000   19.910000   12.690001       1.0000      1.0079
  343   1 O    8      -1.700000    2.250000   15.200001       6.0000     15.9994
  344   2 H    1      -1.170000    2.640000   15.910001       1.0000      1.0079
  345   2 H    1      -1.340000    2.720000   14.410001       1.0000      1.0079
  346   1 O    8      -2.540000   -5.390000   29.450001       6.0000     15.9994
  347   2 H    1      -1.630000   -5.730000   29.170000       1.0000      1.0079
  348   2 H    1      -2.400000   -4.380000   29.390001       1.0000      1.0079
  349   1 O    8       7.560000   -6.300001   25.790003       6.0000     15.9994
  350   2 H    1       8.440001   -6.350000   26.170002       1.0000      1.0079
  351   2 H    1       7.700000   -6.500000   24.820002       1.0000      1.0079
  352   1 O    8      -2.220000   20.640001   27.090000       6.0000     15.9994
  353   2 H    1      -2.930000   21.049999   26.540001       1.0000      1.0079
  354   2 H    1      -2.670000   20.590000   27.950001       1.0000      1.0079
  355   1 O    8       1.580000    3.910000   14.070001       6.0000     15.9994
  356   2 H    1       1.610000    4.770000   13.600000       1.0000      1.0079
  357   2 H    1       1.130000    3.940000   14.960001       1.0000      1.0079
  358   1 O    8      15.250001   15.640001   19.820002       6.0000     15.9994
  359   2 H    1      14.780001   15.260000   19.080002       1.0000      1.0079
  360   2 H    1      14.460001   15.960001   20.280001       1.0000      1.0079
  361   1 O    8     -32.550003    4.290000   29.550001       6.0000     15.9994
  362   2 H    1     -32.740002    3.490000   29.040001       1.0000      1.0079
  363   2 H    1     -32.750000    5.110001   29.000000       1.0000      1.0079
  364   1 O    8      -0.900000   39.030003   10.430001       6.0000     15.9994
  365   2 H    1      -1.580000   38.680004   11.050000       1.0000      1.0079
  366   2 H    1      -1.400000   39.500004    9.710001       1.0000      1.0079
  367   1 O    8      18.500002   21.460001    8.060000       6.0000     15.9994
  368   2 H    1      18.410000   22.250002    8.570001       1.0000      1.0079
  369   2 H    1      17.800001   20.800001    8.420001       1.0000      1.0079
  370   1 O    8     -16.440001   -6.550000   29.580002       6.0000     15.9994
  371   2 H    1     -16.480001   -6.650000   28.570002       1.0000      1.0079
  372   2 H    1     -16.250002   -5.630000   29.640003       1.0000      1.0079
  373   1 O    8      -1.630000   -3.910000   33.390003       6.0000     15.9994
  374   2 H    1      -1.980000   -4.710000   32.940002       1.0000      1.0079
  375   2 H    1      -2.260000   -3.160000   33.180000       1.0000      1.0079
  376   1 O    8     -12.330000   14.590001    9.020000       6.0000     15.9994
  377   2 H    1     -12.130001   14.640001    8.050001       1.0000      1.0079
  378   2 H    1     -12.810000   13.710001    9.030001       1.0000      1.0079
  379   1 O    8       0.070000  -22.770002   20.470001       6.0000     15.9994
  380   2 H    1      -0.860000  -23.010002   20.340002       1.0000      1.0079
  381   2 H    1       0.180000  -21.970001   19.970001       1.0000      1.0079
  382   1 O    8       3.940000  -10.130000   18.360001       6.0000     15.9994
  383   2 H    1       3.830000  -10.370001   17.390001       1.0000      1.0079
  384   2 H    1       3.030000   -9.650001   18.600002       1.0000      1.0079
  385   1 O    8      -8.010000   33.480000   11.360001       6.0000     15.9994
  386   2 H    1      -7.310000   33.030003   10.870000       1.0000      1.0079
  387   2 H    1      -7.570000   34.210003   11.870001       1.0000      1.0079
  388   1 O    8      -4.650001    9.360001   14.460001       6.0000     15.9994
  389   2 H    1      -4.080000    8.770000   14.990001       1.0000      1.0079
  390   2 H    1      -5.560000    9.210001   14.740001       1.0000      1.0079
  391   1 O    8      -1.030000   10.920000   23.670002       6.0000     15.9994
  392   2 H    1      -0.420000   11.260000   24.380001       1.0000      1.0079
  393   2 H    1      -1.190000   11.730001   23.150002       1.0000      1.0079
  394   1 O    8       1.190000   23.220001   15.160000       6.0000     15.9994
  395   2 H    1       9.240000    8.030001   15.830001       1.0000      1.0079
  396   2 H    1       0.630000   24.030001   15.220001       1.0000      1.0079
  397   1 O    8      13.990001    4.540000    8.160001       6.0000     15.9994
  398   2 H    1      13.400001    5.290000    8.470000       1.0000      1.0079
  399   2 H    1      13.370000    3.820000    8.410000       1.0000      1.0079
  400   1 O    8      15.400001   18.290001   26.300001       6.0000     15.9994
  401   2 H    1      15.050001   19.210001   26.420002       1.0000      1.0079
  402   2 H    1      16.310001   18.290001   26.820002       1.0000      1.0079
  403   1 O    8      24.650002   46.210003   32.660004       6.0000     15.9994
  404   2 H    1      25.270002   47.000004   32.480003       1.0000      1.0079
  405   2 H    1      25.250000   45.510002   32.389999       1.0000      1.0079
  406   1 O    8      10.760001   -6.550000   24.970001       6.0000     15.9994
  407   2 H    1      10.280000   -7.160000   24.410002       1.0000      1.0079
  408   2 H    1      10.750000   -5.670000   24.450001       1.0000      1.0079
  409   1 O    8      14.360001    0.800000   11.140001       6.0000     15.9994
  410   2 H    1      14.010000    0.430000   10.320001       1.0000      1.0079
  411   2 H    1      14.520000    1.770000   11.110001       1.0000      1.0079
  412   1 O    8     -27.889999  -12.470001   24.720001       6.0000     15.9994
  413   2 H    1     -27.160000  -12.390001   24.090002       1.0000      1.0079
  414   2 H    1     -28.540001  -11.690001   24.560001       1.0000      1.0079
  415   1 O    8     -12.460001    3.810000   22.840002       6.0000     15.9994
  416   2 H    1     -11.530000    3.640000   23.050001       1.0000      1.0079
  417   2 H    1     -12.820001    4.000000   23.790001       1.0000      1.0079
  418   1 O    8      18.970001   12.350000   16.540001       6.0000     15.9994
  419   2 H    1      19.320000   13.250000   16.750000       1.0000      1.0079
  420   2 H    1      18.360001   12.580000   15.770000       1.0000      1.0079
  421   1 O    8      15.730000    2.210000    8.130000       6.0000     15.9994
  422   2 H    1      16.230000    1.410000    8.490001       1.0000      1.0079
  423   2 H    1      16.410000    2.930000    8.290001       1.0000      1.0079
  424   1 O    8     -16.750000    3.680000   16.580002       6.0000     15.9994
  425   2 H    1     -16.130001    3.900000   17.340000       1.0000      1.0079
  426   2 H    1      -8.860001  -10.130000   16.380001       1.0000      1.0079
  427   1 O    8      -8.260000   -5.360000   29.100000       6.0000     15.9994
  428   2 H    1      -8.790001   -4.520000   29.180002       1.0000      1.0079
  429   2 H    1      -8.300000   -5.710001   29.980001       1.0000      1.0079
  430   1 O    8     -24.250002   11.800001   27.070000       6.0000     15.9994
  431   2 H    1     -23.310001   11.870001   26.639999       1.0000      1.0079
  432   2 H    1     -24.850002   12.030001   26.370001       1.0000      1.0079
  433   1 O    8     -10.960001  -26.600000   16.210001       6.0000     15.9994
  434   2 H    1     -11.300000  -26.360001   17.120001       1.0000      1.0079
  435   2 H    1     -11.240001  -25.770000   15.660001       1.0000      1.0079
  436   1 O    8       8.610001   19.410002   31.900002       6.0000     15.9994
  437   2 H    1       9.410001   19.910000   32.300003       1.0000      1.0079
  438   2 H    1      17.310001    4.580000   30.940001       1.0000      1.0079
  439   1 O    8       1.670000    4.290000   19.010002       6.0000     15.9994
  440   2 H    1       1.060000    4.550000   19.720001       1.0000      1.0079
  441   2 H    1       1.950000    3.340000   19.220001       1.0000      1.0079
  442   1 O    8      -3.030000   13.770000   32.540001       6.0000     15.9994
  443   2 H    1      -2.490000   14.550000   32.670002       1.0000      1.0079
  444   2 H    1      -3.020000   13.380001   33.440002       1.0000      1.0079
  445   1 O    8     -18.960001    5.420001   28.850002       6.0000     15.9994
  446   2 H    1     -18.320002    5.750000   29.470001       1.0000      1.0079
  447   2 H    1     -19.800001    5.340000   29.340002       1.0000      1.0079
  448   1 O    8       8.390000  -17.190001    9.480001       6.0000     15.9994
  449   2 H    1       8.980000  -17.320002   10.320001       1.0000      1.0079
  450   2 H    1      25.510002  -16.440001    8.880001       1.0000      1.0079
  451   1 O    8      24.940002    7.920001   26.690002       6.0000     15.9994
  452   2 H    1      24.290001    8.620001   26.400002       1.0000      1.0079
  453   2 H    1      24.420002    7.120000   26.850002       1.0000      1.0079
  454   1 O    8      -5.990000    5.830000   33.010002       6.0000     15.9994
  455   2 H    1      -6.370000    5.030000   32.610001       1.0000      1.0079
  456   2 H    1      -5.200000    6.220000   32.550003       1.0000      1.0079
  457   1 O    8      15.500001  -15.760001   21.680002       6.0000     15.9994
  458   2 H    1      14.620000  -16.049999   21.550003       1.0000      1.0079
  459   2 H    1      15.610001  -14.930000   21.190002       1.0000      1.0079
  460   1 O    8      18.570002    1.540000   19.120001       6.0000     15.9994
  461   2 H    1      19.110001    1.340000   19.880001       1.0000      1.0079
  462   2 H    1       2.050000    1.060000   18.320002       1.0000      1.0079
  463   1 O    8     -10.990001  -24.750002    8.260000       6.0000     15.9994
  464   2 H    1     -10.130000  -24.290001    8.400001       1.0000      1.0079
  465   2 H    1     -11.720000  -24.050003    8.510000       1.0000      1.0079
  466   1 O    8      12.230001  -14.530001   25.250000       6.0000     15.9994
  467   2 H    1      12.520000  -13.740001   25.760002       1.0000      1.0079
  468   2 H    1      12.950001  -14.760000   24.630001       1.0000      1.0079
  469   1 O    8     -14.640001  -16.800001   29.630001       6.0000     15.9994
  470   2 H    1     -15.630001  -16.750000   29.700001       1.0000      1.0079
  471   2 H    1     -14.540001  -17.230000   28.710001       1.0000      1.0079
  472   1 O    8     -15.380001  -13.570002   18.730001       6.0000     15.9994
  473   2 H    1     -15.220001  -13.860001   17.810001       1.0000      1.0079
  474   2 H    1     -16.100002  -12.890000   18.720001       1.0000      1.0079
  475   1 O    8      21.300001    1.550000   20.850000       6.0000     15.9994
  476   2 H    1      21.020000    0.770000   21.330002       1.0000      1.0079
  477   2 H    1      21.010000    2.210000   21.530001       1.0000      1.0079
  478   1 O    8     -22.550001   31.500000   22.230000       6.0000     15.9994
  479   2 H    1     -22.360001   30.720001   22.780001       1.0000      1.0079
  480   2 H    1     -21.890001   31.480003   21.520002       1.0000      1.0079
  481   1 O    8      12.190001   12.100000   26.120003       6.0000     15.9994
  482   2 H    1      12.180000   13.110001   25.950001       1.0000      1.0079
  483   2 H    1      12.160001   11.690001   25.250000       1.0000      1.0079
  484   1 O    8       1.620000   39.430000   23.140001       6.0000     15.9994
  485   2 H    1       0.710000   39.440002   23.410000       1.0000      1.0079
  486   2 H    1       2.120000   40.090004   23.730001       1.0000      1.0079
  487   1 O    8       5.610001   40.230003   20.950001       6.0000     15.9994
  488   2 H    1       4.790000   40.420002   20.420000       1.0000      1.0079
  489   2 H    1       5.390000   39.459999   21.470001       1.0000      1.0079
  490   1 O    8      14.460001   26.340000   10.600000       6.0000     15.9994
  491   2 H    1      15.260000   26.770000   10.170001       1.0000      1.0079
  492   2 H    1      13.600000   26.630001   10.220001       1.0000      1.0079
  493   1 O    8       0.480000   -7.130001   33.240002       6.0000     15.9994
  494   2 H    1      -7.750000    8.440001   33.049999       1.0000      1.0079
  495   2 H    1       1.300000   -7.700000   33.200001       1.0000      1.0079
  496   1 O    8      21.790001   13.510000   27.460001       6.0000     15.9994
  497   2 H    1      13.680000   27.370003   28.170002       1.0000      1.0079
  498   2 H    1      14.140000   28.720001   27.420002       1.0000      1.0079
  499   1 O    8      18.230001    0.070000   23.910000       6.0000     15.9994
  500   2 H    1      17.610001   -0.680000   23.820002       1.0000      1.0079
  501   2 H    1      18.990000   -0.110000   24.530001       1.0000      1.0079
  502   1 O    8      -4.300000    0.460000   23.770000       6.0000     15.9994
  503   2 H    1      -3.460000    0.780000   24.190002       1.0000      1.0079
  504   2 H    1      -4.010000   -0.210000   23.110001       1.0000      1.0079
  505   1 O    8      24.980001    3.130000   19.030001       6.0000     15.9994
[...]
    899      3      Pt          0.00851828    -0.01134344    -0.00758481
    900      3      Pt         -0.01569609    -0.00968203     0.00685330
    901      3      Pt         -0.00094751     0.00707254    -0.00865613
    902      3      Pt         -0.00525084    -0.00343280     0.00376127
    903      3      Pt         -0.00851785     0.01366022    -0.00970338
    904      3      Pt         -0.02287205     0.01840691     0.00635520
    905      3      Pt          0.00438119     0.00115275     0.01668116
    906      3      Pt          0.00073208     0.00744909     0.00736814
 SUM OF ATOMIC FORCES          -0.01143818    -0.00159888     0.01562063     0.01942659

 STRESS| Analytical stress tensor [GPa]
 STRESS|                        x                   y                   z
 STRESS|      x       -2.14824495719E+00   1.97745613877E-01   4.72245470686E-02
 STRESS|      y        1.97745613877E-01  -2.45000946528E+00   1.91331862194E-01
 STRESS|      z        4.72245470686E-02   1.91331862194E-01  -2.80413564756E-01
 STRESS| 1/3 Trace                                            -1.62622266241E+00
 STRESS| Determinant                                          -1.37723322346E+00

 STRESS| Eigenvectors and eigenvalues of the analytical stress tensor [GPa]
 STRESS|                        1                   2                   3
 STRESS| Eigenvalues  -2.55795319017E+00  -2.05925510403E+00  -2.61459693029E-01
 STRESS|      x          -0.427433992470      0.903393457097      0.034357586594
 STRESS|      y           0.901569593247      0.423143596199      0.090120838481
 STRESS|      z          -0.066876383084     -0.069496465167      0.995338028368

 -------------------------------------------------------------------------------
 -                                                                             -
 -                                DBCSR STATISTICS                             -
 -                                                                             -
 -------------------------------------------------------------------------------
 COUNTER                                    TOTAL       BLAS       SMM       ACC
 flops     5 x     5 x   288          87681787200       0.0%    100.0%      0.0%
 flops     5 x     5 x   292          88899589800       0.0%    100.0%      0.0%
 flops     5 x    13 x   288          98985369600       0.0%    100.0%      0.0%
 flops    13 x     5 x   288          99082414080       0.0%    100.0%      0.0%
 flops    20 x    13 x   288         100319731200       0.0%    100.0%      0.0%
 flops     5 x    13 x   292         100360166400       0.0%    100.0%      0.0%
 flops    13 x     5 x   292         100458558720       0.0%    100.0%      0.0%
 flops    13 x    20 x   288         100817084160       0.0%    100.0%      0.0%
 flops    20 x    13 x   292         101713060800       0.0%    100.0%      0.0%
 flops    13 x    20 x   292         102217321440       0.0%    100.0%      0.0%
 flops    13 x    13 x   288         105436401408       0.0%    100.0%      0.0%
 flops    13 x    13 x   292         106900795872       0.0%    100.0%      0.0%
 flops    20 x     5 x   288         110019513600       0.0%    100.0%      0.0%
 flops     5 x    20 x   288         110038176000       0.0%    100.0%      0.0%
 flops    20 x     5 x   292         111547562400       0.0%    100.0%      0.0%
 flops     5 x    20 x   292         111566484000       0.0%    100.0%      0.0%
 flops    20 x    20 x   288         437372006400       0.0%    100.0%      0.0%
 flops    20 x    20 x   292         443446617600       0.0%    100.0%      0.0%
 flops     5 x     5 x   320         584545248000       0.0%    100.0%      0.0%
 flops     5 x    13 x   320         659902464000       0.0%    100.0%      0.0%
 flops    13 x     5 x   320         660549427200       0.0%    100.0%      0.0%
 flops    20 x    13 x   320         668798208000       0.0%    100.0%      0.0%
 flops    13 x    20 x   320         672113894400       0.0%    100.0%      0.0%
 flops    13 x    13 x   320         702909342720       0.0%    100.0%      0.0%
 flops    20 x     5 x   320         733463424000       0.0%    100.0%      0.0%
 flops     5 x    20 x   320         733587840000       0.0%    100.0%      0.0%
 flops    20 x    20 x   320        2915813376000       0.0%    100.0%      0.0%
 flops inhomo. stacks                           0       0.0%      0.0%      0.0%
 flops total                        10.848546E+12       0.0%    100.0%      0.0%
 flops max/rank                    177.452370E+09       0.0%    100.0%      0.0%
 matmuls inhomo. stacks                         0       0.0%      0.0%      0.0%
 matmuls total                          156193920       0.0%    100.0%      0.0%
 number of processed stacks                414720       0.0%    100.0%      0.0%
 average stack size                                     0.0     376.6       0.0
 marketing flops                    30.827858E+12
 -------------------------------------------------------------------------------
 # multiplications                             81
 max memory usage/rank               1.865888E+09
 # max total images/rank                        1
 # max 3D layers                                1
 # MPI messages exchanged                   72576
 MPI messages size (bytes):
  total size                       217.954714E+09
  min size                           2.762496E+06
  max size                           3.077120E+06
  average size                       3.003124E+06
 MPI breakdown and total messages size (bytes):
             size <=      128                   0                        0
       128 < size <=     8192                   0                        0
      8192 < size <=    32768                   0                        0
     32768 < size <=   131072                   0                        0
    131072 < size <=  4194304               72576             217954800000
   4194304 < size <= 16777216                   0                        0
  16777216 < size                               0                        0
 -------------------------------------------------------------------------------
 -                                                                             -
 -                      DBCSR MESSAGE PASSING PERFORMANCE                      -
 -                                                                             -
 -------------------------------------------------------------------------------
 ROUTINE             CALLS      AVE VOLUME [Bytes]
 MP_Bcast               28                     12.
 MP_Allreduce          641                     10.
 MP_Alltoall          2268                1955087.
 MP_ISend             2592                1329597.
 MP_IRecv             2592                1310413.
 -------------------------------------------------------------------------------

 -------------------------------------------------------------------------------
 -                                                                             -
 -                                DBM STATISTICS                               -
 -                                                                             -
 -------------------------------------------------------------------------------
    M  x    N  x    K                                          COUNT     PERCENT
 -------------------------------------------------------------------------------

 -------------------------------------------------------------------------------
 -                                                                             -
 -                                GRID STATISTICS                              -
 -                                                                             -
 -------------------------------------------------------------------------------
 LP    KERNEL             BACKEND                              COUNT     PERCENT
 3     collocate general  REF                               56270538      18.88%
 3     integrate general  REF                               55633824      18.66%
 2     collocate general  REF                               53040825      17.79%
 2     integrate general  REF                               52386000      17.57%
 4     collocate general  REF                               39617748      13.29%
 4     integrate general  REF                               39128640      13.13%
 6     integrate general  REF                                 694698       0.23%
 5     integrate general  REF                                 654825       0.22%
 7     integrate general  REF                                 489108       0.16%
 0     collocate general  REF                                 115968       0.04%
 0     integrate general  REF                                  57984       0.02%
 -------------------------------------------------------------------------------

 MEMORY| Estimated peak process memory [MiB]                                2108

 -------------------------------------------------------------------------------
 ----                             MULTIGRID INFO                            ----
 -------------------------------------------------------------------------------
 count for grid        1:         731591          cutoff [a.u.]          200.00
 count for grid        2:         807155          cutoff [a.u.]           66.67
 count for grid        3:         741630          cutoff [a.u.]           22.22
 count for grid        4:         831437          cutoff [a.u.]            7.41
 total gridlevel count  :        3111813

 -------------------------------------------------------------------------------
 -                                                                             -
 -                         MESSAGE PASSING PERFORMANCE                         -
 -                                                                             -
 -------------------------------------------------------------------------------

 ROUTINE             CALLS      AVE VOLUME [Bytes]
 MP_Group                4
 MP_Bcast              262                2253303.
 MP_Allreduce         1365                   1836.
 MP_Sync                84
 MP_Alltoall          1798               14147016.
 MP_SendRecv           252                  13704.
 MP_ISendRecv        20412                 113680.
 MP_Wait             45668
 MP_ISend            23616                 340043.
 MP_IRecv            23616                 340043.
 MP_Recv               308                2460160.
 MP_Write_All            3                1540656.
 -------------------------------------------------------------------------------


 -------------------------------------------------------------------------------
 -                                                                             -
 -                           R E F E R E N C E S                               -
 -                                                                             -
 -------------------------------------------------------------------------------
 
 CP2K version 2022.1, the CP2K developers group (2022).
 CP2K is freely available from https://www.cp2k.org/ .

 Kuehne,Thomas D.; Iannuzzi,Marcella; Del Ben,Mauro;
 Rybkin,Vladimir V.; Seewald,Patrick; Stein,Frederick; Laino,Teodoro;
 Khaliullin,Rustam Z.; Schuett,Ole; Schiffmann,Florian; Golze,Dorothea;
 Wilhelm,Jan; Chulkov,Sergey; Bani-Hashemian,Mohammad Hossein;
 Weber,Valery; Borstnik,Urban; Taillefumier,Mathieu;
 Jakobovits,Alice Shoshana; Lazzaro,Alfio; Pabst,Hans; Mueller,Tiziano;
 Schade,Robert; Guidon,Manuel; Andermatt,Samuel; Holmberg,Nico;
 Schenter,Gregory K.; Hehn,Anna; Bussy,Augustin; Belleflamme,Fabian;
 Tabacchi,Gloria; Gloess,Andreas; Lass,Michael; Bethune,Iain;
 Mundy,Christopher J.; Plessl,Christian; Watkins,Matt;
 VandeVondele,Joost; Krack,Matthias; Hutter,Juerg. 
 The Journal of Chemical Physics, 152 (19), (2020). 
 CP2K: An electronic structure and molecular dynamics software package -
 Quickstep: Efficient and accurate electronic structure calculations.
 https://doi.org/10.1063/5.0007045

 Goerigk, Lars; Hansen, Andreas; Bauer, Christoph; Ehrlich, Stephan;
 Najibi, Asim; Grimme, Stefan. , 19 (48), (2017). 
 A look at the density functional theory zoo with the advanced GMTKN55 database
 for general main group thermochemistry, kinetics and noncovalent interactions.
 https://doi.org/10.1039/C7CP04913G

 Schuett, Ole; Messmer, Peter; Hutter, Juerg; VandeVondele, Joost. 
 Electronic Structure Calculations on Graphics Processing Units, John
 Wiley & Sons, Ltd, 173-190 (2016). 
 GPU-Accelerated Sparse Matrix-Matrix Multiplication for
 Linear Scaling Density Functional Theory.
 https://doi.org/10.1002/9781118670712.ch8

 Heinecke, A; Henry, G; Hutchinson, M; Pabst, H. 
 Proceedings of Intl. Supercomputing Conference, 981-991 (2016). 
 LIBXSMM: Accelerating Small Matrix Multiplications
 by Runtime Code Generation.
 https://doi.org/10.1109/SC.2016.83

 Borstnik, U; VandeVondele, J; Weber, V; Hutter, J. 
 PARALLEL COMPUTING, 40 (5-6), 47-58 (2014). 
 Sparse matrix multiplication: The distributed block-compressed sparse
 row library.
 https://doi.org/10.1016/j.parco.2014.03.012

 Hutter, J; Iannuzzi, M; Schiffmann, F; VandeVondele, J. 
 WIREs Comput Mol Sci., 4 (1), 15-25 (2014). 
 CP2K: atomistic simulations of condensed matter systems.
 https://doi.org/10.1002/wcms.1159

 Marek, A; Blum, V; Johanni, R; Havu, V; Lang, B; Auckenthaler, T;
 Heinecke, A; Bungartz, H; Lederer, H. 
 Journal of Physics: Condensed Matter, 26 (21), (2014). 
 The ELPA library: scalable parallel eigenvalue solutions for
 electronic structure
 theory and computational science.
 https://doi.org/10.1088/0953-8984/26/21/213201

 Grimme, S; Ehrlich, S; Goerigk, L. 
 JOURNAL OF COMPUTATIONAL CHEMISTRY, 32, 1456 (2011). 
 Effect of the damping function in dispersion corrected density functional theory.
 https://doi.org/10.1002/jcc.21759

 Grimme, S; Antony, J; Ehrlich, S; Krieg, H. 
 JOURNAL OF CHEMICAL PHYSICS, 132 (15), 154104 (2010). 
 A consistent and accurate ab initio parametrization of density
 functional dispersion correction (DFT-D) for the 94 elements H-Pu.
 https://doi.org/10.1063/1.3382344

 VandeVondele, J; Hutter, J. 
 JOURNAL OF CHEMICAL PHYSICS, 127 (11), 114105 (2007). 
 Gaussian basis sets for accurate calculations on molecular systems in
 gas and condensed phases.
 https://doi.org/10.1063/1.2770708

 Krack, M. 
 THEORETICAL CHEMISTRY ACCOUNTS, 114 (1-3), 145-152 (2005). 
 Pseudopotentials for H to Kr optimized for gradient-corrected
 exchange-correlation functionals.
 https://doi.org/10.1007/s00214-005-0655-y

 VandeVondele, J; Krack, M; Mohamed, F; Parrinello, M; Chassaing, T;
 Hutter, J. COMPUTER PHYSICS COMMUNICATIONS, 167 (2), 103-128 (2005). 
 QUICKSTEP: Fast and accurate density functional calculations using a
 mixed Gaussian and plane waves approach.
 https://doi.org/10.1016/j.cpc.2004.12.014

 Frigo, M; Johnson, SG. 
 PROCEEDINGS OF THE IEEE, 93 (2), 216-231 (2005). 
 The design and implementation of FFTW3.
 https://doi.org/10.1109/JPROC.2004.840301

 Hartwigsen, C; Goedecker, S; Hutter, J. 
 PHYSICAL REVIEW B, 58 (7), 3641-3662 (1998). 
 Relativistic separable dual-space Gaussian pseudopotentials from H to Rn.
 https://doi.org/10.1103/PhysRevB.58.3641

 Lippert, G; Hutter, J; Parrinello, M. 
 MOLECULAR PHYSICS, 92 (3), 477-487 (1997). 
 A hybrid Gaussian and plane wave density functional scheme.
 https://doi.org/10.1080/002689797170220

 Perdew, JP; Burke, K; Ernzerhof, M. 
 PHYSICAL REVIEW LETTERS, 77 (18), 3865-3868 (1996). 
 Generalized gradient approximation made simple.
 https://doi.org/10.1103/PhysRevLett.77.3865

 Goedecker, S; Teter, M; Hutter, J. 
 PHYSICAL REVIEW B, 54 (3), 1703-1710 (1996). 
 Separable dual-space Gaussian pseudopotentials.
 https://doi.org/10.1103/PhysRevB.54.1703


 -------------------------------------------------------------------------------
 -                                                                             -
 -                                T I M I N G                                  -
 -                                                                             -
 -------------------------------------------------------------------------------
 SUBROUTINE                       CALLS  ASD         SELF TIME        TOTAL TIME
                                MAXIMUM       AVERAGE  MAXIMUM  AVERAGE  MAXIMUM
 CP2K                                 1  1.0    0.031    0.045  957.277  957.280
 qs_forces                            1  2.0    0.002    0.003  956.863  956.866
 qs_energies                          1  3.0    0.000    0.000  944.298  944.310
 scf_env_do_scf                       1  4.0    0.000    0.001  936.053  936.302
 scf_env_do_scf_inner_loop           80  5.0    0.004    0.012  936.053  936.302
 qs_scf_new_mos                      80  6.0    0.005    0.011  381.119  381.714
 eigensolver                         80  7.0    0.007    0.010  354.162  354.523
 rebuild_ks_matrix                   81  7.0    0.000    0.000  296.097  296.139
 qs_ks_build_kohn_sham_matrix        81  8.0    0.012    0.014  296.097  296.138
 qs_ks_update_qs_env                 80  6.0    0.001    0.001  288.041  288.083
 qs_rho_update_rho_low               81  6.0    0.001    0.001  252.563  252.597
 calculate_rho_elec                  81  7.0    0.189    0.223  252.562  252.596
 sum_up_and_integrate                81  9.0    0.341    0.420  248.470  248.512
 integrate_v_rspace                  81 10.0    0.003    0.004  248.129  248.213
 grid_collocate_task_list            81  8.0  222.301  228.202  222.301  228.202
 grid_integrate_task_list            81 11.0  216.669  221.665  216.669  221.665
 cp_fm_diag_elpa                     80  8.0    0.001    0.001  207.788  208.300
 cp_fm_diag_elpa_base                80  9.0  204.591  205.307  207.440  207.514
 cp_fm_triangular_multiply          240  8.0  143.429  145.213  143.429  145.213
 pw_transfer                       1620 10.9    0.115    0.171   44.913   45.974
 fft_wrap_pw1pw2                   1458 12.0    0.014    0.020   44.401   45.410
 rs_pw_transfer                     652 10.5    0.007    0.008   39.037   44.055
 fft_wrap_pw1pw2_200                972 13.3    3.994    4.315   42.754   43.682
 qs_vxc_create                       81  9.0    0.003    0.003   42.002   42.240
 xc_vxc_pw_create                    81 10.0    0.743    0.789   42.000   42.238
 fft3d_ps                          1458 14.0   16.114   18.274   32.825   34.024
 density_rs2pw                       81  8.0    0.005    0.006   27.754   32.706
 xc_pw_derive                       486 12.0    0.008    0.009   26.844   28.115
 xc_rho_set_and_dset_create          81 11.0    0.394    0.424   22.658   24.155
 potential_pw2rs                     81 11.0    0.030    0.036   23.400   23.476
 mp_waitany                       23616 12.4   16.695   22.427   16.695   22.427
 rs_pw_transfer_RS2PW_200            83 10.0    5.208    5.737   15.422   20.492
 calculate_dm_sparse                 80  7.0    0.025    0.032   19.560   20.225
 cp_dbcsr_plus_fm_fm_t_native        81  8.0    0.004    0.007   19.500   20.190
 -------------------------------------------------------------------------------

 The number of warnings for this run is : 1
 
 -------------------------------------------------------------------------------
  **** **** ******  **  PROGRAM ENDED AT                 2023-11-26 23:49:55.949
 ***** ** ***  *** **   PROGRAM RAN ON                                     cu054
 **    ****   ******    PROGRAM RAN BY                                     jxzhu
 ***** **    ** ** **   PROGRAM PROCESS ID                                 44466
  **** **  *******  **  PROGRAM STOPPED IN /public/home/jxzhu/tmp_calc/af2075565
                                           805657d94fa4669dad6f4b174b0a4fb/calc/
                                           002400.000/pbc
