 DBCSR| CPU Multiplication driver                                           XSMM
 DBCSR| Multrec recursion limit                                              512
 DBCSR| Multiplication stack size                                           1000
 DBCSR| Maximum elements for images                                    UNLIMITED
 DBCSR| Multiplicative factor virtual images                                   1
 DBCSR| Use multiplication densification                                       T
 DBCSR| Multiplication size stacks                                             3
 DBCSR| Use memory pool for CPU allocation                                     F
 DBCSR| Number of 3D layers                                               SINGLE
 DBCSR| Use MPI memory allocation                                              F
 DBCSR| Use RMA algorithm                                                      F
 DBCSR| Use Communication thread                                               T
 DBCSR| Communication thread load                                             87
 DBCSR| MPI: My node id                                                        0
 DBCSR| MPI: Number of nodes                                                  64
 DBCSR| OMP: Current number of threads                                         1
 DBCSR| OMP: Max number of threads                                             1
 DBCSR| Split modifier for TAS multiplication algorithm                  1.0E+00


  **** **** ******  **  PROGRAM STARTED AT               2023-11-26 21:31:32.687
 ***** ** ***  *** **   PROGRAM STARTED ON                                 cu054
 **    ****   ******    PROGRAM STARTED BY                                 jxzhu
 ***** **    ** ** **   PROGRAM PROCESS ID                                 23101
  **** **  *******  **  PROGRAM STARTED IN /public/home/jxzhu/tmp_calc/af2075565
                                           805657d94fa4669dad6f4b174b0a4fb/calc/
                                           002800.000/pbc

 CP2K| version string:                                       CP2K version 2022.1
 CP2K| source code revision number:                                  git:2caeb6f
 CP2K| cp2kflags: omp libint fftw3 libxc elpa parallel mpi3 scalapack cosma xsmm
 CP2K|             plumed2 spglib mkl sirius libvori libbqb
 CP2K| is freely available from                            https://www.cp2k.org/
 CP2K| Program compiled at                           Mon Jul 3 17:37:06 CST 2023
 CP2K| Program compiled on                                                 mu003
 CP2K| Program compiled for                                                local
 CP2K| Data directory path                             /public/home/jxzhu/basis/
 CP2K| Input file name                                                 input.inp
 
 GLOBAL| Force Environment number                                              1
 GLOBAL| Basis set file name                                        BASIS_MOLOPT
 GLOBAL| Potential file name                                      GTH_POTENTIALS
 GLOBAL| MM Potential file name                                     MM_POTENTIAL
 GLOBAL| Coordinate file name                                          coord.xyz
 GLOBAL| Method name                                                        CP2K
 GLOBAL| Project name                                                       cp2k
 GLOBAL| Run type                                                   ENERGY_FORCE
 GLOBAL| FFT library                                                       FFTW3
 GLOBAL| Diagonalization library                                            ELPA
 GLOBAL| Minimum number of eigenvectors for ELPA usage                        16
 GLOBAL| Orthonormality check for eigenvectors                          DISABLED
 GLOBAL| Matrix multiplication library                                     COSMA
 GLOBAL| All-to-all communication in single precision                          F
 GLOBAL| FFTs using library dependent lengths                                  F
 GLOBAL| Grid backend                                                       AUTO
 GLOBAL| Global print level                                               MEDIUM
 GLOBAL| MPI I/O enabled                                                       T
 GLOBAL| Total number of message passing processes                            64
 GLOBAL| Number of threads for this process                                    1
 GLOBAL| This output is from process                                           0
 GLOBAL| Stack size for threads created by OpenMP (OMP_STACKSIZE)        default
 GLOBAL| CPU model name                 Intel(R) Xeon(R) Gold 6338 CPU @ 2.00GHz
 GLOBAL| CPUID                                                              1003

 MEMORY| system memory details [Kb]
 MEMORY|                        rank 0           min           max       average
 MEMORY| MemTotal            263619172     263619172     263619172     263619172
 MEMORY| MemFree             210025280     210025280     210027760     210025754
 MEMORY| Buffers                  3320          3320          3320          3320
 MEMORY| Cached                4608920       4608920       4608920       4608920
 MEMORY| Slab                  1856040       1856040       1856040       1856040
 MEMORY| SReclaimable           245488        245488        245488        245488
 MEMORY| MemLikelyFree       214883008     214883008     214885488     214883482


 *** Fundamental physical constants (SI units) ***

 *** Literature: B. J. Mohr and B. N. Taylor,
 ***             CODATA recommended values of the fundamental physical
 ***             constants: 2006, Web Version 5.1
 ***             http://physics.nist.gov/constants

 Speed of light in vacuum [m/s]                             2.99792458000000E+08
 Magnetic constant or permeability of vacuum [N/A**2]       1.25663706143592E-06
 Electric constant or permittivity of vacuum [F/m]          8.85418781762039E-12
 Planck constant (h) [J*s]                                  6.62606896000000E-34
 Planck constant (h-bar) [J*s]                              1.05457162825177E-34
 Elementary charge [C]                                      1.60217648700000E-19
 Electron mass [kg]                                         9.10938215000000E-31
 Electron g factor [ ]                                     -2.00231930436220E+00
 Proton mass [kg]                                           1.67262163700000E-27
 Fine-structure constant                                    7.29735253760000E-03
 Rydberg constant [1/m]                                     1.09737315685270E+07
 Avogadro constant [1/mol]                                  6.02214179000000E+23
 Boltzmann constant [J/K]                                   1.38065040000000E-23
 Atomic mass unit [kg]                                      1.66053878200000E-27
 Bohr radius [m]                                            5.29177208590000E-11

 *** Conversion factors ***

 [u] -> [a.u.]                                              1.82288848426455E+03
 [Angstrom] -> [Bohr] = [a.u.]                              1.88972613288564E+00
 [a.u.] = [Bohr] -> [Angstrom]                              5.29177208590000E-01
 [a.u.] -> [s]                                              2.41888432650478E-17
 [a.u.] -> [fs]                                             2.41888432650478E-02
 [a.u.] -> [J]                                              4.35974393937059E-18
 [a.u.] -> [N]                                              8.23872205491840E-08
 [a.u.] -> [K]                                              3.15774647902944E+05
 [a.u.] -> [kJ/mol]                                         2.62549961709828E+03
 [a.u.] -> [kcal/mol]                                       6.27509468713739E+02
 [a.u.] -> [Pa]                                             2.94210107994716E+13
 [a.u.] -> [bar]                                            2.94210107994716E+08
 [a.u.] -> [atm]                                            2.90362800883016E+08
 [a.u.] -> [eV]                                             2.72113838565563E+01
 [a.u.] -> [Hz]                                             6.57968392072181E+15
 [a.u.] -> [1/cm] (wave numbers)                            2.19474631370540E+05
 [a.u./Bohr**2] -> [1/cm]                                   5.14048714338585E+03
 

 CELL_TOP| Volume [angstrom^3]:                                     10221.806009
 CELL_TOP| Vector a [angstrom    16.869     0.000     0.000   |a| =    16.869000
 CELL_TOP| Vector b [angstrom    -8.434    14.609     0.000   |b| =    16.869015
 CELL_TOP| Vector c [angstrom     0.000     0.000    41.478   |c| =    41.478000
 CELL_TOP| Angle (b,c), alpha [degree]:                                90.000000
 CELL_TOP| Angle (a,c), beta  [degree]:                                90.000000
 CELL_TOP| Angle (a,b), gamma [degree]:                               119.999970
 CELL_TOP| Numerically orthorhombic:                                          NO
 
 GENERATE|  Preliminary Number of Bonds generated:                             0
 GENERATE|  Achieved consistency in connectivity generation.

 CELL| Volume [angstrom^3]:                                         10221.806009
 CELL| Vector a [angstrom]:      16.869     0.000     0.000   |a| =    16.869000
 CELL| Vector b [angstrom]:      -8.434    14.609     0.000   |b| =    16.869015
 CELL| Vector c [angstrom]:       0.000     0.000    41.478   |c| =    41.478000
 CELL| Angle (b,c), alpha [degree]:                                    90.000000
 CELL| Angle (a,c), beta  [degree]:                                    90.000000
 CELL| Angle (a,b), gamma [degree]:                                   119.999970
 CELL| Numerically orthorhombic:                                              NO

 CELL_REF| Volume [angstrom^3]:                                     10221.806009
 CELL_REF| Vector a [angstrom    16.869     0.000     0.000   |a| =    16.869000
 CELL_REF| Vector b [angstrom    -8.434    14.609     0.000   |b| =    16.869015
 CELL_REF| Vector c [angstrom     0.000     0.000    41.478   |c| =    41.478000
 CELL_REF| Angle (b,c), alpha [degree]:                                90.000000
 CELL_REF| Angle (a,c), beta  [degree]:                                90.000000
 CELL_REF| Angle (a,b), gamma [degree]:                               119.999970
 CELL_REF| Numerically orthorhombic:                                          NO

 *******************************************************************************
 *******************************************************************************
 **                                                                           **
 **     #####                         ##              ##                      **
 **    ##   ##            ##          ##              ##                      **
 **   ##     ##                       ##            ######                    **
 **   ##     ##  ##   ##  ##   #####  ##  ##   ####   ##    #####    #####    **
 **   ##     ##  ##   ##  ##  ##      ## ##   ##      ##   ##   ##  ##   ##   **
 **   ##  ## ##  ##   ##  ##  ##      ####     ###    ##   ######   ######    **
 **    ##  ###   ##   ##  ##  ##      ## ##      ##   ##   ##       ##        **
 **     #######   #####   ##   #####  ##  ##  ####    ##    #####   ##        **
 **           ##                                                    ##        **
 **                                                                           **
 **                                                ... make the atoms dance   **
 **                                                                           **
 **            Copyright (C) by CP2K developers group (2000-2022)             **
 **                      J. Chem. Phys. 152, 194103 (2020)                    **
 **                                                                           **
 *******************************************************************************

 DFT| Spin restricted Kohn-Sham (RKS) calculation                            RKS
 DFT| Multiplicity                                                             1
 DFT| Number of spin states                                                    1
 DFT| Charge                                                                   0
 DFT| Self-interaction correction (SIC)                                       NO
 DFT| Cutoffs: density                                              1.000000E-10
 DFT|          gradient                                             1.000000E-10
 DFT|          tau                                                  1.000000E-10
 DFT|          cutoff_smoothing_range                               0.000000E+00
 DFT| XC density smoothing                                                  NONE
 DFT| XC derivatives                                                          PW

 FUNCTIONAL| PBE:
 FUNCTIONAL| J.P.Perdew, K.Burke, M.Ernzerhof, Phys. Rev. Letter, vol. 77, n 18,
 FUNCTIONAL|  pp. 3865-3868, (1996){spin unpolarized}                           

 vdW POTENTIAL|                                                   Pair Potential
 vdW POTENTIAL|          DFT-D3 (Version 3.1)
 vdW POTENTIAL|          Potential Form: S. Grimme et al, JCP 132: 154104 (2010)
 vdW POTENTIAL|          Zero Damping
 vdW POTENTIAL|          Cutoff Radius [Bohr]:                             20.00
 vdW POTENTIAL|          s6 Scaling Factor:                               1.0000
 vdW POTENTIAL|          sr6 Scaling Factor:                              1.2170
 vdW POTENTIAL|          s8 Scaling Factor:                               0.7220
 vdW POTENTIAL|          Cutoff for CN calculation:                   0.1000E-05

 QS| Method:                                                                 GPW
 QS| Density plane wave grid type                        NON-SPHERICAL FULLSPACE
 QS| Number of grid levels:                                                    4
 QS| Density cutoff [a.u.]:                                                200.0
 QS| Multi grid cutoff [a.u.]: 1) grid level                               200.0
 QS|                           2) grid level                                66.7
 QS|                           3) grid level                                22.2
 QS|                           4) grid level                                 7.4
 QS| Grid level progression factor:                                          3.0
 QS| Relative density cutoff [a.u.]:                                        20.0
 QS| Interaction thresholds: eps_pgf_orb:                                3.2E-07
 QS|                         eps_filter_matrix:                          0.0E+00
 QS|                         eps_core_charge:                            1.0E-15
 QS|                         eps_rho_gspace:                             1.0E-13
 QS|                         eps_rho_rspace:                             1.0E-13
 QS|                         eps_gvg_rspace:                             3.2E-07
 QS|                         eps_ppl:                                    1.0E-02
 QS|                         eps_ppnl:                                   3.2E-09


 ATOMIC KIND INFORMATION

  1. Atomic kind: O                                     Number of atoms:     230

     Orbital Basis Set                                        DZVP-MOLOPT-SR-GTH

       Number of orbital shell sets:                                           1
       Number of orbital shells:                                               5
       Number of primitive Cartesian functions:                                5
       Number of Cartesian basis functions:                                   14
       Number of spherical basis functions:                                   13
       Norm type:                                                              2

       Normalised Cartesian orbitals:

                        Set   Shell   Orbital            Exponent    Coefficient

                          1       1    2s               10.389228       0.396646
                                                         3.849621       0.208811
                                                         1.388401      -0.301641
                                                         0.496955      -0.274061
                                                         0.162492      -0.033677

                          1       2    3s               10.389228       0.303673
                                                         3.849621       0.240943
                                                         1.388401      -0.313066
                                                         0.496955      -0.043055
                                                         0.162492       0.213991

                          1       3    3px              10.389228      -1.530415
                                                         3.849621      -1.371928
                                                         1.388401      -0.761951
                                                         0.496955      -0.253695
                                                         0.162492      -0.035541
                          1       3    3py              10.389228      -1.530415
                                                         3.849621      -1.371928
                                                         1.388401      -0.761951
                                                         0.496955      -0.253695
                                                         0.162492      -0.035541
                          1       3    3pz              10.389228      -1.530415
                                                         3.849621      -1.371928
                                                         1.388401      -0.761951
                                                         0.496955      -0.253695
                                                         0.162492      -0.035541

                          1       4    4px              10.389228      -0.565392
                                                         3.849621      -0.038231
                                                         1.388401      -0.382373
                                                         0.496955       0.179070
                                                         0.162492       0.122714
                          1       4    4py              10.389228      -0.565392
                                                         3.849621      -0.038231
                                                         1.388401      -0.382373
                                                         0.496955       0.179070
                                                         0.162492       0.122714
                          1       4    4pz              10.389228      -0.565392
                                                         3.849621      -0.038231
                                                         1.388401      -0.382373
                                                         0.496955       0.179070
                                                         0.162492       0.122714

                          1       5    4dx2             10.389228       1.867377
                                                         3.849621       0.670994
                                                         1.388401       1.353441
                                                         0.496955       0.273538
                                                         0.162492       0.006620
                          1       5    4dxy             10.389228       3.234392
                                                         3.849621       1.162195
                                                         1.388401       2.344229
                                                         0.496955       0.473781
                                                         0.162492       0.011466
                          1       5    4dxz             10.389228       3.234392
                                                         3.849621       1.162195
                                                         1.388401       2.344229
                                                         0.496955       0.473781
                                                         0.162492       0.011466
                          1       5    4dy2             10.389228       1.867377
                                                         3.849621       0.670994
                                                         1.388401       1.353441
                                                         0.496955       0.273538
                                                         0.162492       0.006620
                          1       5    4dyz             10.389228       3.234392
                                                         3.849621       1.162195
                                                         1.388401       2.344229
                                                         0.496955       0.473781
                                                         0.162492       0.011466
                          1       5    4dz2             10.389228       1.867377
                                                         3.849621       0.670994
                                                         1.388401       1.353441
                                                         0.496955       0.273538
                                                         0.162492       0.006620

       Atomic covalent radius [Angstrom]:                                  0.730

       Atomic van der Waals radius [Angstrom]:                             1.520

     GTH Potential information for                                    GTH-PBE-q6

       Description:                       Goedecker-Teter-Hutter pseudopotential
                                           Goedecker et al., PRB 54, 1703 (1996)
                                          Hartwigsen et al., PRB 58, 3641 (1998)
                                                      Krack, TCA 114, 145 (2005)

       Gaussian exponent of the core charge distribution:               8.360253
       Electronic configuration (s p d ...):                               2   4

       Parameters of the local part of the GTH pseudopotential:

                          rloc        C1          C2          C3          C4
                        0.244554  -16.667215    2.487311

       Parameters of the non-local part of the GTH pseudopotential:

                   l      r(l)      h(i,j,l)

                   0    0.220956   18.337458
                   1    0.211332

  2. Atomic kind: H                                     Number of atoms:     460

     Orbital Basis Set                                        DZVP-MOLOPT-SR-GTH

       Number of orbital shell sets:                                           1
       Number of orbital shells:                                               3
       Number of primitive Cartesian functions:                                5
       Number of Cartesian basis functions:                                    5
       Number of spherical basis functions:                                    5
       Norm type:                                                              2

       Normalised Cartesian orbitals:

                        Set   Shell   Orbital            Exponent    Coefficient

                          1       1    2s               10.068468      -0.133023
                                                         2.680223      -0.177618
                                                         0.791502      -0.258419
                                                         0.239116      -0.107525
                                                         0.082193      -0.014019

                          1       2    3s               10.068468       0.344673
                                                         2.680223       1.819821
                                                         0.791502      -0.999069
                                                         0.239116       0.017430
                                                         0.082193       0.082660

                          1       3    3px              10.068468       0.155326
                                                         2.680223       0.367157
                                                         0.791502       0.311480
                                                         0.239116       0.080105
                                                         0.082193       0.033440
                          1       3    3py              10.068468       0.155326
                                                         2.680223       0.367157
                                                         0.791502       0.311480
                                                         0.239116       0.080105
                                                         0.082193       0.033440
                          1       3    3pz              10.068468       0.155326
                                                         2.680223       0.367157
                                                         0.791502       0.311480
                                                         0.239116       0.080105
                                                         0.082193       0.033440

       Atomic covalent radius [Angstrom]:                                  0.320

       Atomic van der Waals radius [Angstrom]:                             1.090

     GTH Potential information for                                    GTH-PBE-q1

       Description:                       Goedecker-Teter-Hutter pseudopotential
                                           Goedecker et al., PRB 54, 1703 (1996)
                                          Hartwigsen et al., PRB 58, 3641 (1998)
                                                      Krack, TCA 114, 145 (2005)

       Gaussian exponent of the core charge distribution:              12.500000
       Electronic configuration (s p d ...):                                   1

       Parameters of the local part of the GTH pseudopotential:

                          rloc        C1          C2          C3          C4
                        0.200000   -4.178900    0.724463

  3. Atomic kind: Pt                                    Number of atoms:     216

     Orbital Basis Set                      DZVP-A5-Q10-323-MOL-T1-DERIVED_SET-1

       Number of orbital shell sets:                                           1
       Number of orbital shells:                                               6
       Number of primitive Cartesian functions:                                5
       Number of Cartesian basis functions:                                   23
       Number of spherical basis functions:                                   20
       Norm type:                                                              2

       Normalised Cartesian orbitals:

                        Set   Shell   Orbital            Exponent    Coefficient

                          1       1    2s                2.521825       0.177473
                                                         1.453920      -0.063399
                                                         0.614053      -0.407089
                                                         0.232656       0.262254
                                                         0.074788       0.047371

                          1       2    3s                2.521825      -0.049056
                                                         1.453920       0.044904
                                                         0.614053      -0.009756
                                                         0.232656      -0.144709
                                                         0.074788       0.144085

                          1       3    3px               2.521825      -0.317572
                                                         1.453920       0.534826
                                                         0.614053      -0.489458
                                                         0.232656       0.245631
                                                         0.074788       0.018221
                          1       3    3py               2.521825      -0.317572
                                                         1.453920       0.534826
                                                         0.614053      -0.489458
                                                         0.232656       0.245631
                                                         0.074788       0.018221
                          1       3    3pz               2.521825      -0.317572
                                                         1.453920       0.534826
                                                         0.614053      -0.489458
                                                         0.232656       0.245631
                                                         0.074788       0.018221

                          1       4    4dx2              2.521825       3.008522
                                                         1.453920      -1.224251
                                                         0.614053       0.225691
                                                         0.232656       0.125144
                                                         0.074788      -0.015348
                          1       4    4dxy              2.521825       5.210912
                                                         1.453920      -2.120465
                                                         0.614053       0.390909
                                                         0.232656       0.216756
                                                         0.074788      -0.026584
                          1       4    4dxz              2.521825       5.210912
                                                         1.453920      -2.120465
                                                         0.614053       0.390909
                                                         0.232656       0.216756
                                                         0.074788      -0.026584
                          1       4    4dy2              2.521825       3.008522
                                                         1.453920      -1.224251
                                                         0.614053       0.225691
                                                         0.232656       0.125144
                                                         0.074788      -0.015348
                          1       4    4dyz              2.521825       5.210912
                                                         1.453920      -2.120465
                                                         0.614053       0.390909
                                                         0.232656       0.216756
                                                         0.074788      -0.026584
                          1       4    4dz2              2.521825       3.008522
                                                         1.453920      -1.224251
                                                         0.614053       0.225691
                                                         0.232656       0.125144
                                                         0.074788      -0.015348

                          1       5    5dx2              2.521825       0.698026
                                                         1.453920      -1.511486
                                                         0.614053      -0.335394
                                                         0.232656      -0.025564
                                                         0.074788      -0.002699
                          1       5    5dxy              2.521825       1.209017
                                                         1.453920      -2.617970
                                                         0.614053      -0.580920
                                                         0.232656      -0.044277
                                                         0.074788      -0.004674
                          1       5    5dxz              2.521825       1.209017
                                                         1.453920      -2.617970
                                                         0.614053      -0.580920
                                                         0.232656      -0.044277
                                                         0.074788      -0.004674
                          1       5    5dy2              2.521825       0.698026
                                                         1.453920      -1.511486
                                                         0.614053      -0.335394
                                                         0.232656      -0.025564
                                                         0.074788      -0.002699
                          1       5    5dyz              2.521825       1.209017
                                                         1.453920      -2.617970
                                                         0.614053      -0.580920
                                                         0.232656      -0.044277
                                                         0.074788      -0.004674
                          1       5    5dz2              2.521825       0.698026
                                                         1.453920      -1.511486
                                                         0.614053      -0.335394
                                                         0.232656      -0.025564
                                                         0.074788      -0.002699

                          1       6    6dx2              2.521825       0.831079
                                                         1.453920      -0.709226
                                                         0.614053      -0.137351
                                                         0.232656       0.068642
                                                         0.074788       0.011745
                          1       6    6dxy              2.521825       1.439472
                                                         1.453920      -1.228415
                                                         0.614053      -0.237899
                                                         0.232656       0.118891
                                                         0.074788       0.020343
                          1       6    6dxz              2.521825       1.439472
                                                         1.453920      -1.228415
                                                         0.614053      -0.237899
                                                         0.232656       0.118891
                                                         0.074788       0.020343
                          1       6    6dy2              2.521825       0.831079
                                                         1.453920      -0.709226
                                                         0.614053      -0.137351
                                                         0.232656       0.068642
                                                         0.074788       0.011745
                          1       6    6dyz              2.521825       1.439472
                                                         1.453920      -1.228415
                                                         0.614053      -0.237899
                                                         0.232656       0.118891
                                                         0.074788       0.020343
                          1       6    6dz2              2.521825       0.831079
                                                         1.453920      -0.709226
                                                         0.614053      -0.137351
                                                         0.232656       0.068642
                                                         0.074788       0.011745

       Atomic covalent radius [Angstrom]:                                  1.300

       Atomic van der Waals radius [Angstrom]:                             1.750

     GTH Potential information for                                   GTH-PBE-q10

       Description:                       Goedecker-Teter-Hutter pseudopotential
                                           Goedecker et al., PRB 54, 1703 (1996)
                                          Hartwigsen et al., PRB 58, 3641 (1998)
                                                      Krack, TCA 114, 145 (2005)

       Gaussian exponent of the core charge distribution:               1.317676
       Electronic configuration (s p d ...):                           1   0   9

       Parameters of the local part of the GTH pseudopotential:

                          rloc        C1          C2          C3          C4
                        0.616000   11.313635

       Parameters of the non-local part of the GTH pseudopotential:

                   l      r(l)      h(i,j,l)

                   0    0.550904    4.733491   -1.784594
                                   -1.784594    2.303901
                   1    0.674138    2.534798   -1.778066
                                   -1.778066    2.103836
                   2    0.457392   -7.264011    2.558665
                                    2.558665   -2.901253


 MOLECULE KIND INFORMATION


 All atoms are their own molecule, skipping detailed information


 TOTAL NUMBERS AND MAXIMUM NUMBERS

  Total number of            - Atomic kinds:                                   3
                             - Atoms:                                        906
                             - Shell sets:                                   906
                             - Shells:                                      3826
                             - Primitive Cartesian functions:               4530
                             - Cartesian basis functions:                  10488
                             - Spherical basis functions:                   9610

  Maximum angular momentum of- Orbital basis functions:                        2
                             - Local part of the GTH pseudopotential:          2
                             - Non-local part of the GTH pseudopotential:      4


 MODULE QUICKSTEP:  ATOMIC COORDINATES IN angstrom

 Atom  Kind  Element       X           Y           Z          Z(eff)       Mass
    1   1 O    8       4.840000    0.760000    8.720000       6.0000     15.9994
    2   2 H    1       4.050000    0.930000    8.190001       1.0000      1.0079
    3   2 H    1       4.690000   -0.230000    8.920000       1.0000      1.0079
    4   1 O    8      10.180000   11.030001   12.550001       6.0000     15.9994
    5   2 H    1      10.900001   11.050000   11.840000       1.0000      1.0079
    6   2 H    1      10.130000   10.050000   12.810000       1.0000      1.0079
    7   1 O    8      -7.990000  -24.370001    8.240001       6.0000     15.9994
    8   2 H    1      -7.050000  -24.650002    8.510000       1.0000      1.0079
    9   2 H    1      -8.520000  -24.960001    8.860001       1.0000      1.0079
   10   1 O    8      25.410002    9.240000   10.400001       6.0000     15.9994
   11   2 H    1      25.130001   10.190001   10.370001       1.0000      1.0079
   12   2 H    1      25.710001    9.120001   11.320001       1.0000      1.0079
   13   1 O    8      11.990000  -23.240002   20.030001       6.0000     15.9994
   14   2 H    1      12.540001  -23.290001   20.880001       1.0000      1.0079
   15   2 H    1      12.560000  -23.050001   19.200001       1.0000      1.0079
   16   1 O    8       9.370001   35.450001   19.850002       6.0000     15.9994
   17   2 H    1       8.770000   35.270000   20.600002       1.0000      1.0079
   18   2 H    1      10.230000   35.590004   20.220001       1.0000      1.0079
   19   1 O    8     -14.230001   -0.640000   29.920002       6.0000     15.9994
   20   2 H    1     -15.070001   -0.720000   29.460001       1.0000      1.0079
   21   2 H    1     -14.300001   -1.190000   30.660002       1.0000      1.0079
   22   1 O    8       9.870001   30.960003    9.030001       6.0000     15.9994
   23   2 H    1      10.200001   31.280003    8.160001       1.0000      1.0079
   24   2 H    1      17.480000   15.860001    9.030001       1.0000      1.0079
   25   1 O    8     -38.170002  -34.430000   23.630001       6.0000     15.9994
   26   2 H    1     -39.180000  -34.450001   23.570002       1.0000      1.0079
   27   2 H    1     -38.060001  -34.529999   22.560001       1.0000      1.0079
   28   1 O    8      26.170002   16.180000   24.650002       6.0000     15.9994
   29   2 H    1      25.880001   16.940001   24.060001       1.0000      1.0079
   30   2 H    1      26.200001   16.520000   25.580002       1.0000      1.0079
   31   1 O    8      15.510001   11.560000   13.870001       6.0000     15.9994
   32   2 H    1      15.680000   11.210001   14.790001       1.0000      1.0079
   33   2 H    1      15.190001   12.490001   13.900002       1.0000      1.0079
   34   1 O    8     -14.080001  -44.320000    9.240000       6.0000     15.9994
   35   2 H    1     -14.470000  -43.380005    9.210001       1.0000      1.0079
   36   2 H    1     -14.150001  -44.590000   10.190001       1.0000      1.0079
   37   1 O    8      -5.840001  -20.640001   22.340002       6.0000     15.9994
   38   2 H    1      -6.800000  -20.540001   22.490002       1.0000      1.0079
   39   2 H    1      -5.330000  -20.090000   22.860001       1.0000      1.0079
   40   1 O    8      34.900002   29.570004    9.940001       6.0000     15.9994
   41   2 H    1      33.930000   29.650002    9.740001       1.0000      1.0079
   42   2 H    1      35.060001   29.610003   10.890001       1.0000      1.0079
   43   1 O    8      -7.980001  -18.330000   32.510002       6.0000     15.9994
   44   2 H    1      -8.920000  -18.500002   32.190002       1.0000      1.0079
   45   2 H    1      -8.020000  -18.410000   33.540001       1.0000      1.0079
   46   1 O    8      13.610001   21.790001   25.030001       6.0000     15.9994
   47   2 H    1      13.110001   20.950001   24.799999       1.0000      1.0079
   48   2 H    1      13.160001   22.630001   24.760000       1.0000      1.0079
   49   1 O    8     -18.040001   19.220001   31.010000       6.0000     15.9994
   50   2 H    1     -17.180000   19.139999   31.460001       1.0000      1.0079
   51   2 H    1     -18.210001   19.970001   30.460003       1.0000      1.0079
   52   1 O    8     -24.150002   21.670000   18.630001       6.0000     15.9994
   53   2 H    1     -24.070000   20.760002   18.300001       1.0000      1.0079
   54   2 H    1     -23.280001   21.620003   19.150002       1.0000      1.0079
   55   1 O    8       0.990000  -12.210001   24.770002       6.0000     15.9994
   56   2 H    1       0.060000  -12.510000   24.560001       1.0000      1.0079
   57   2 H    1       1.410000  -12.510000   25.610001       1.0000      1.0079
   58   1 O    8      21.340000    4.120000    8.690001       6.0000     15.9994
   59   2 H    1      21.560001    5.000000    9.170000       1.0000      1.0079
   60   2 H    1      21.700001    4.310000    7.790000       1.0000      1.0079
   61   1 O    8     -15.470000   39.000000   28.310001       6.0000     15.9994
   62   2 H    1     -16.220001   38.800003   27.770002       1.0000      1.0079
   63   2 H    1       2.040000   38.230003   28.420002       1.0000      1.0079
   64   1 O    8      32.800003  -27.000000   12.830001       6.0000     15.9994
   65   2 H    1      32.660004  -28.030003   12.710000       1.0000      1.0079
   66   2 H    1      50.450001  -26.750002   12.300000       1.0000      1.0079
   67   1 O    8       3.930000    9.410001   21.110001       6.0000     15.9994
   68   2 H    1      -3.970000   24.660000   20.540001       1.0000      1.0079
   69   2 H    1       4.020000    8.490001   20.780001       1.0000      1.0079
   70   1 O    8       6.470000    8.010000   33.380001       6.0000     15.9994
   71   2 H    1       7.520000    7.870001   33.390003       1.0000      1.0079
   72   2 H    1       6.100000    7.160000   32.900002       1.0000      1.0079
   73   1 O    8     -20.220001   -4.110000   29.500000       6.0000     15.9994
   74   2 H    1     -20.570002   -3.210000   29.730000       1.0000      1.0079
   75   2 H    1     -20.960003   -4.760000   29.300001       1.0000      1.0079
   76   1 O    8      -0.280000   -1.050000   32.450001       6.0000     15.9994
   77   2 H    1      -0.650000   -0.940000   33.360001       1.0000      1.0079
   78   2 H    1       0.060000   -1.950000   32.440002       1.0000      1.0079
   79   1 O    8      -9.580001  -33.970001   20.700001       6.0000     15.9994
   80   2 H    1      -9.700001  -34.930004   21.020000       1.0000      1.0079
   81   2 H    1     -10.040001  -34.040001   19.780001       1.0000      1.0079
   82   1 O    8      21.790001  -22.810001   10.110001       6.0000     15.9994
   83   2 H    1      22.580002  -22.430000    9.690001       1.0000      1.0079
   84   2 H    1      20.980000  -22.220001    9.970000       1.0000      1.0079
   85   1 O    8      -5.270000    5.860000   22.690001       6.0000     15.9994
   86   2 H    1      -5.310000    6.860001   22.630001       1.0000      1.0079
   87   2 H    1      -4.660000    5.680000   23.420000       1.0000      1.0079
   88   1 O    8      10.200001   -2.530000    8.010000       6.0000     15.9994
   89   2 H    1      -6.020000   -3.320000    8.310000       1.0000      1.0079
   90   2 H    1      10.500001   -1.710000    8.420001       1.0000      1.0079
   91   1 O    8     -11.650001    2.830000   18.210001       6.0000     15.9994
   92   2 H    1     -10.910001    2.570000   17.630001       1.0000      1.0079
   93   2 H    1     -12.440001    2.570000   17.700001       1.0000      1.0079
   94   1 O    8      13.690001   57.450005    8.660001       6.0000     15.9994
   95   2 H    1      13.520001   57.820000    7.740001       1.0000      1.0079
   96   2 H    1      12.840000   57.610001    9.180000       1.0000      1.0079
   97   1 O    8     -25.090000   -6.550000   12.610001       6.0000     15.9994
   98   2 H    1     -25.820000   -6.520000   13.320000       1.0000      1.0079
   99   2 H    1     -24.970001   -5.650000   12.350000       1.0000      1.0079
  100   1 O    8       3.330000    3.440000   13.420000       6.0000     15.9994
  101   2 H    1       4.080000    3.480000   12.810000       1.0000      1.0079
  102   2 H    1       3.620000    4.280000   13.880000       1.0000      1.0079
  103   1 O    8      32.650002   21.910002    8.680000       6.0000     15.9994
  104   2 H    1      32.930000   21.090002    8.270000       1.0000      1.0079
  105   2 H    1      16.500000   22.350002    9.220000       1.0000      1.0079
  106   1 O    8      -9.670001   15.280001    9.040001       6.0000     15.9994
  107   2 H    1      -9.440001   15.260000    8.080000       1.0000      1.0079
  108   2 H    1     -10.490000   14.690001    8.970000       1.0000      1.0079
  109   1 O    8      31.290001    9.710001   11.850000       6.0000     15.9994
  110   2 H    1      31.560001   10.090000   12.680000       1.0000      1.0079
  111   2 H    1      32.070004    9.760000   11.270000       1.0000      1.0079
  112   1 O    8     -48.660004    6.900001   14.770001       6.0000     15.9994
  113   2 H    1     -49.000000    7.250000   13.920001       1.0000      1.0079
  114   2 H    1     -47.750000    6.510000   14.460001       1.0000      1.0079
  115   1 O    8      16.170002   20.290001   12.630000       6.0000     15.9994
  116   2 H    1      16.639999   20.570002   13.530001       1.0000      1.0079
  117   2 H    1      16.980001   19.820002   12.290001       1.0000      1.0079
  118   1 O    8     -31.660002   26.730001   24.340000       6.0000     15.9994
  119   2 H    1     -31.460001   27.700003   24.230001       1.0000      1.0079
  120   2 H    1     -32.530003   26.600000   23.950003       1.0000      1.0079
  121   1 O    8       2.170000    0.680000   12.530001       6.0000     15.9994
  122   2 H    1       1.650000   -0.050000   13.000001       1.0000      1.0079
  123   2 H    1       2.060000    1.360000   13.190001       1.0000      1.0079
  124   1 O    8     -18.570002    3.680000   27.850000       6.0000     15.9994
  125   2 H    1     -26.710003   19.200001   27.950001       1.0000      1.0079
  126   2 H    1     -18.970001    3.400000   28.670002       1.0000      1.0079
  127   1 O    8     -10.250001   -7.440000    8.870000       6.0000     15.9994
  128   2 H    1      -9.840000   -8.010000    9.560000       1.0000      1.0079
  129   2 H    1     -18.600002    6.650000    7.940001       1.0000      1.0079
  130   1 O    8     -10.640000   13.370000   21.950001       6.0000     15.9994
  131   2 H    1     -10.240001   13.990001   21.350000       1.0000      1.0079
  132   2 H    1     -10.500001   12.470001   21.650002       1.0000      1.0079
  133   1 O    8       4.090000   21.390001    9.580001       6.0000     15.9994
  134   2 H    1       4.850000   21.690002    9.130000       1.0000      1.0079
  135   2 H    1       3.350000   22.000000    9.360001       1.0000      1.0079
  136   1 O    8     -39.150002   11.290001   32.180000       6.0000     15.9994
  137   2 H    1     -38.730003   10.950001   33.030003       1.0000      1.0079
  138   2 H    1     -40.110001   11.130000   32.200005       1.0000      1.0079
  139   1 O    8     -11.140001   -3.390000   28.920002       6.0000     15.9994
  140   2 H    1     -11.700001   -2.630000   28.690002       1.0000      1.0079
  141   2 H    1     -11.720000   -4.070000   29.380001       1.0000      1.0079
  142   1 O    8      -1.330000   16.360001   14.230001       6.0000     15.9994
  143   2 H    1      -0.530000   16.110001   13.710001       1.0000      1.0079
  144   2 H    1      -1.790000   16.970001   13.610001       1.0000      1.0079
  145   1 O    8     -19.790001   31.710003   23.010002       6.0000     15.9994
  146   2 H    1      -2.890000   31.020002   23.750000       1.0000      1.0079
  147   2 H    1     -20.750000   31.800001   22.920000       1.0000      1.0079
  148   1 O    8     -27.240002    6.690001   29.650002       6.0000     15.9994
  149   2 H    1     -27.120001    6.840000   28.680000       1.0000      1.0079
  150   2 H    1     -28.130001    7.090001   29.750002       1.0000      1.0079
  151   1 O    8     -10.800000    1.090000   21.610001       6.0000     15.9994
  152   2 H    1      -9.970000    0.760000   21.110001       1.0000      1.0079
  153   2 H    1     -11.010000    1.990000   21.240002       1.0000      1.0079
  154   1 O    8     -25.880001   -9.290000   15.250001       6.0000     15.9994
  155   2 H    1     -26.300001   -9.440001   14.300001       1.0000      1.0079
  156   2 H    1     -25.000000   -8.830000   15.180001       1.0000      1.0079
  157   1 O    8      23.470001  -11.170001    9.140000       6.0000     15.9994
  158   2 H    1      22.670002  -10.920000    8.660001       1.0000      1.0079
  159   2 H    1      23.530003  -12.210001    9.120001       1.0000      1.0079
  160   1 O    8       2.390000   -6.010000    9.070001       6.0000     15.9994
  161   2 H    1       1.590000   -5.660000    9.490001       1.0000      1.0079
  162   2 H    1       2.530000   -5.530000    8.190001       1.0000      1.0079
  163   1 O    8      42.690002   -4.010000   11.950001       6.0000     15.9994
  164   2 H    1      43.690002   -4.000000   12.190001       1.0000      1.0079
  165   2 H    1      42.260002   -3.510000   12.660000       1.0000      1.0079
  166   1 O    8       9.320001  -12.460001   27.270002       6.0000     15.9994
  167   2 H    1       9.250001  -13.440001   27.670002       1.0000      1.0079
  168   2 H    1       8.430000  -12.040001   27.490002       1.0000      1.0079
  169   1 O    8     -51.520004  -14.280001   29.490002       6.0000     15.9994
  170   2 H    1     -35.410000  -14.700001   29.060001       1.0000      1.0079
  171   2 H    1     -34.670002  -13.310001   29.310001       1.0000      1.0079
  172   1 O    8      18.930000   -0.410000   21.230001       6.0000     15.9994
  173   2 H    1      18.360001   -1.260000   21.119999       1.0000      1.0079
  174   2 H    1      19.910000   -0.690000   21.080000       1.0000      1.0079
  175   1 O    8       9.890000  -33.870003   19.510000       6.0000     15.9994
  176   2 H    1      10.740000  -33.820004   20.020000       1.0000      1.0079
  177   2 H    1       9.170000  -33.790001   20.220001       1.0000      1.0079
  178   1 O    8      -6.200000   20.830002   28.350000       6.0000     15.9994
  179   2 H    1      -5.890000   19.880001   28.380001       1.0000      1.0079
  180   2 H    1      -6.290000   20.970001   27.420002       1.0000      1.0079
  181   1 O    8      21.390001   29.980001   11.400002       6.0000     15.9994
  182   2 H    1      20.480001   30.080002   11.800001       1.0000      1.0079
  183   2 H    1      21.520002   30.120001   10.440001       1.0000      1.0079
  184   1 O    8      18.810001  -14.430000   14.830000       6.0000     15.9994
  185   2 H    1      19.340002  -13.640001   14.730001       1.0000      1.0079
  186   2 H    1      18.620001  -14.360001   13.830000       1.0000      1.0079
  187   1 O    8     -27.560001   58.010002   13.170000       6.0000     15.9994
  188   2 H    1     -28.170002   58.460003   12.460001       1.0000      1.0079
  189   2 H    1     -27.170002   58.700005   13.730000       1.0000      1.0079
  190   1 O    8      17.680000   21.070002   14.690001       6.0000     15.9994
  191   2 H    1      17.540001   21.330002   15.630001       1.0000      1.0079
  192   2 H    1      18.510000   20.570002   14.620000       1.0000      1.0079
  193   1 O    8       3.040000   -6.430000   33.270000       6.0000     15.9994
  194   2 H    1       2.090000   -6.680000   32.970001       1.0000      1.0079
  195   2 H    1       3.770000   -6.880000   32.870003       1.0000      1.0079
  196   1 O    8     -33.900002  -14.560001   20.280001       6.0000     15.9994
  197   2 H    1     -34.170002  -14.970001   19.350000       1.0000      1.0079
  198   2 H    1     -33.510002  -15.250001   20.850000       1.0000      1.0079
  199   1 O    8     -26.130001   21.680002   20.820000       6.0000     15.9994
  200   2 H    1     -26.370001   20.840000   20.540001       1.0000      1.0079
  201   2 H    1     -25.350000   21.880001   20.240002       1.0000      1.0079
  202   1 O    8      16.060001   14.940001    9.090000       6.0000     15.9994
  203   2 H    1      16.230000   14.160000    9.720000       1.0000      1.0079
  204   2 H    1      15.260000   14.770001    8.500000       1.0000      1.0079
  205   1 O    8      16.049999   16.460001   16.980001       6.0000     15.9994
  206   2 H    1       7.470000   31.040001   15.990001       1.0000      1.0079
  207   2 H    1      16.760002   17.160000   17.030001       1.0000      1.0079
  208   1 O    8     -32.350002   -2.280000    8.980000       6.0000     15.9994
  209   2 H    1     -32.380001   -1.270000    9.200000       1.0000      1.0079
  210   2 H    1     -31.580002   -2.330000    8.390000       1.0000      1.0079
  211   1 O    8      11.370001    1.740000   30.820004       6.0000     15.9994
  212   2 H    1      12.360001    1.920000   30.710001       1.0000      1.0079
  213   2 H    1      11.140001    2.740000   30.720001       1.0000      1.0079
  214   1 O    8      27.020000    4.070000   29.770002       6.0000     15.9994
  215   2 H    1      27.400002    3.660000   28.990002       1.0000      1.0079
  216   2 H    1      27.100000    5.090000   29.780003       1.0000      1.0079
  217   1 O    8     -43.860001   32.270004    9.940001       6.0000     15.9994
  218   2 H    1     -44.580002   32.780003    9.610001       1.0000      1.0079
  219   2 H    1     -43.860001   31.390001    9.500000       1.0000      1.0079
  220   1 O    8      39.160000    5.880000   32.170002       6.0000     15.9994
  221   2 H    1      38.490002    5.460000   32.750000       1.0000      1.0079
  222   2 H    1      39.760002    5.180000   31.820002       1.0000      1.0079
  223   1 O    8       4.380000   13.060001   14.460001       6.0000     15.9994
  224   2 H    1      20.559999   13.790001   14.660001       1.0000      1.0079
  225   2 H    1       5.060000   13.170000   15.090000       1.0000      1.0079
  226   1 O    8      18.430000   52.160000   12.750001       6.0000     15.9994
  227   2 H    1      19.300001   51.740002   12.530001       1.0000      1.0079
  228   2 H    1      34.980003   51.740002   13.620001       1.0000      1.0079
  229   1 O    8     -21.010000   35.680000   31.430000       6.0000     15.9994
  230   2 H    1     -21.130001   35.590004   30.500002       1.0000      1.0079
  231   2 H    1     -20.020000   35.520004   31.710003       1.0000      1.0079
  232   1 O    8      10.720000   -2.210000   27.260000       6.0000     15.9994
  233   2 H    1      11.430000   -2.320000   26.630001       1.0000      1.0079
  234   2 H    1      10.490000   -3.050000   27.670002       1.0000      1.0079
  235   1 O    8      -0.070000   32.630001   22.930002       6.0000     15.9994
  236   2 H    1       0.440000   33.010002   22.190001       1.0000      1.0079
  237   2 H    1      -0.920000   32.170002   22.740002       1.0000      1.0079
  238   1 O    8      12.050000   11.090001   18.070000       6.0000     15.9994
  239   2 H    1       3.420000   25.380001   17.200001       1.0000      1.0079
  240   2 H    1      11.430000   10.810001   18.760000       1.0000      1.0079
  241   1 O    8      17.390001   -2.670000   27.150002       6.0000     15.9994
  242   2 H    1      17.500002   -2.610000   26.200001       1.0000      1.0079
  243   2 H    1      16.510000   -3.170000   27.280003       1.0000      1.0079
  244   1 O    8      -0.960000   -2.840000   11.850000       6.0000     15.9994
  245   2 H    1      -0.090000   -3.140000   12.290001       1.0000      1.0079
  246   2 H    1      -1.630000   -3.440000   12.210001       1.0000      1.0079
  247   1 O    8      13.280001    0.840000   33.139999       6.0000     15.9994
  248   2 H    1      12.520000    1.470000   33.000000       1.0000      1.0079
  249   2 H    1      12.840000   -0.080000   33.100002       1.0000      1.0079
  250   1 O    8      29.920002  -16.570000    9.020000       6.0000     15.9994
  251   2 H    1      30.250000  -16.890001    8.180000       1.0000      1.0079
  252   2 H    1      29.550001  -17.350002    9.520000       1.0000      1.0079
  253   1 O    8      -3.440000   -3.270000   19.490002       6.0000     15.9994
  254   2 H    1      -3.910000   -2.380000   19.600000       1.0000      1.0079
  255   2 H    1      -2.510000   -2.960000   19.250000       1.0000      1.0079
  256   1 O    8       7.340000  -17.550001    8.180000       6.0000     15.9994
  257   2 H    1       8.210000  -17.300001    8.470000       1.0000      1.0079
  258   2 H    1       6.660000  -16.910002    8.560000       1.0000      1.0079
  259   1 O    8     -21.490002   32.010002   14.460001       6.0000     15.9994
  260   2 H    1     -21.000002   31.320002   13.950001       1.0000      1.0079
  261   2 H    1     -21.180000   32.020000   15.400001       1.0000      1.0079
  262   1 O    8       5.950000   10.420000   15.290001       6.0000     15.9994
  263   2 H    1       5.160000   10.380001   15.910001       1.0000      1.0079
  264   2 H    1       6.700000    9.970000   15.750000       1.0000      1.0079
  265   1 O    8      26.950001    3.710000   16.740000       6.0000     15.9994
  266   2 H    1      27.480001    3.430000   15.990001       1.0000      1.0079
  267   2 H    1      35.980003   18.340000   17.620001       1.0000      1.0079
  268   1 O    8       5.270000   -5.900001   25.720001       6.0000     15.9994
  269   2 H    1       6.070001   -5.560000   26.120003       1.0000      1.0079
  270   2 H    1       4.710000   -5.200000   25.270002       1.0000      1.0079
  271   1 O    8      -7.750000    1.860000   12.130001       6.0000     15.9994
  272   2 H    1      -7.300000    2.690000   12.010001       1.0000      1.0079
  273   2 H    1      -8.260000    1.800000   11.330000       1.0000      1.0079
  274   1 O    8      -8.230000   -6.400001   32.580002       6.0000     15.9994
  275   2 H    1      -7.860000   -5.780000   33.200001       1.0000      1.0079
  276   2 H    1      -9.090000   -5.910000   32.280003       1.0000      1.0079
  277   1 O    8       8.470000   19.540001    8.050001       6.0000     15.9994
  278   2 H    1      -7.500000   19.120001    8.380001       1.0000      1.0079
  279   2 H    1       7.810000   18.890001    8.470000       1.0000      1.0079
  280   1 O    8      46.850006  -26.270000   26.390001       6.0000     15.9994
  281   2 H    1      46.630001  -25.600002   25.670002       1.0000      1.0079
  282   2 H    1      47.640003  -25.870001   26.890001       1.0000      1.0079
  283   1 O    8      12.900001  -11.430000   26.020002       6.0000     15.9994
  284   2 H    1       3.820000    3.300000   26.820002       1.0000      1.0079
  285   2 H    1      13.790001  -11.140001   26.340000       1.0000      1.0079
  286   1 O    8     -20.459999   34.650002   25.040001       6.0000     15.9994
  287   2 H    1      -2.580000   34.660000   24.850002       1.0000      1.0079
  288   2 H    1     -20.570002   35.280003   25.790003       1.0000      1.0079
  289   1 O    8       3.400000   20.020000   13.740001       6.0000     15.9994
  290   2 H    1       3.900000   19.200001   13.810000       1.0000      1.0079
  291   2 H    1       3.930000   20.620001   13.180000       1.0000      1.0079
  292   1 O    8      28.530003  -12.590000   30.260002       6.0000     15.9994
  293   2 H    1      28.160002  -13.520001   30.280001       1.0000      1.0079
  294   2 H    1      29.280003  -12.600001   30.920002       1.0000      1.0079
  295   1 O    8       3.840000    8.270000   29.310001       6.0000     15.9994
  296   2 H    1       3.520000    8.160001   30.260002       1.0000      1.0079
  297   2 H    1       3.440000    7.560000   28.790001       1.0000      1.0079
  298   1 O    8       8.100000   11.380000   23.260002       6.0000     15.9994
  299   2 H    1       7.260000   11.200000   23.780001       1.0000      1.0079
  300   2 H    1       8.440001   10.450001   23.280001       1.0000      1.0079
  301   1 O    8     -16.310001    8.620001    8.870000       6.0000     15.9994
  302   2 H    1     -16.920000    7.830000    8.890000       1.0000      1.0079
  303   2 H    1     -16.049999    8.780001    7.940001       1.0000      1.0079
  304   1 O    8       5.470000   16.930000   16.630001       6.0000     15.9994
  305   2 H    1       6.350000   16.570000   16.340000       1.0000      1.0079
  306   2 H    1       5.200000   16.480001   17.480000       1.0000      1.0079
  307   1 O    8     -25.730001   27.880001   11.200000       6.0000     15.9994
  308   2 H    1     -26.270000   28.080002   11.980001       1.0000      1.0079
  309   2 H    1     -25.990002   26.990002   10.810001       1.0000      1.0079
  310   1 O    8     -18.010002   15.460001   32.320000       6.0000     15.9994
  311   2 H    1     -17.210001   15.650001   32.810001       1.0000      1.0079
  312   2 H    1     -17.810001   15.110001   31.410000       1.0000      1.0079
  313   1 O    8     -17.370001   11.270000    9.260000       6.0000     15.9994
  314   2 H    1     -16.990002   10.430001    9.650001       1.0000      1.0079
  315   2 H    1     -16.670000   11.710000    8.680000       1.0000      1.0079
  316   1 O    8       7.950000   -8.430000   29.410002       6.0000     15.9994
  317   2 H    1       8.930000   -8.310000   29.240000       1.0000      1.0079
  318   2 H    1       7.810000   -8.560000   30.400002       1.0000      1.0079
  319   1 O    8      -9.990001   -6.880000   14.660001       6.0000     15.9994
  320   2 H    1      -9.840000   -7.770000   15.140000       1.0000      1.0079
  321   2 H    1      -9.640000   -6.110000   15.150002       1.0000      1.0079
  322   1 O    8      33.760002   -8.860001   17.180000       6.0000     15.9994
  323   2 H    1      34.430000   -9.540001   16.850000       1.0000      1.0079
  324   2 H    1      33.900002   -8.710001   18.110001       1.0000      1.0079
  325   1 O    8     -23.290001    2.320000   27.370003       6.0000     15.9994
  326   2 H    1     -23.150002    1.480000   27.910002       1.0000      1.0079
  327   2 H    1     -22.369999    2.480000   26.980001       1.0000      1.0079
  328   1 O    8      -1.760000   -7.240000   22.530001       6.0000     15.9994
  329   2 H    1      -2.290000   -7.390000   23.370001       1.0000      1.0079
  330   2 H    1      -2.380000   -7.000000   21.850002       1.0000      1.0079
  331   1 O    8     -20.330000   44.190002   25.720001       6.0000     15.9994
  332   2 H    1     -20.559999   45.140003   25.730001       1.0000      1.0079
  333   2 H    1     -20.910000   43.820004   25.000000       1.0000      1.0079
  334   1 O    8     -19.770000  -11.190001   20.660000       6.0000     15.9994
  335   2 H    1     -19.780001  -11.250000   19.730000       1.0000      1.0079
  336   2 H    1     -19.030001  -10.610001   21.010000       1.0000      1.0079
  337   1 O    8      14.500000   25.420000   32.340004       6.0000     15.9994
  338   2 H    1      22.820000   10.380001   31.400002       1.0000      1.0079
  339   2 H    1      -2.290000   24.600000   32.940002       1.0000      1.0079
  340   1 O    8      28.100002   22.130001    9.230001       6.0000     15.9994
  341   2 H    1      28.330002   21.790001    8.320000       1.0000      1.0079
  342   2 H    1      27.090000   22.369999    9.220000       1.0000      1.0079
  343   1 O    8      -2.470000    4.720000   21.100002       6.0000     15.9994
  344   2 H    1      -2.960000    4.320000   21.850002       1.0000      1.0079
  345   2 H    1      -2.610000    4.140000   20.370003       1.0000      1.0079
  346   1 O    8       6.530001  -18.890001   27.160000       6.0000     15.9994
  347   2 H    1       6.240000  -18.580000   26.270000       1.0000      1.0079
  348   2 H    1       5.830000  -18.620001   27.820000       1.0000      1.0079
  349   1 O    8       1.580000    7.150001   25.940001       6.0000     15.9994
  350   2 H    1       0.650000    6.850000   25.820000       1.0000      1.0079
  351   2 H    1       1.610000    7.960001   25.360001       1.0000      1.0079
  352   1 O    8      -0.660000   17.490002   29.180002       6.0000     15.9994
  353   2 H    1       0.230000   17.889999   29.120003       1.0000      1.0079
  354   2 H    1      -1.140000   18.110001   29.760000       1.0000      1.0079
  355   1 O    8       3.170000   10.950001   11.610001       6.0000     15.9994
  356   2 H    1       3.960000   10.780001   12.200001       1.0000      1.0079
  357   2 H    1       3.300000   10.590000   10.680000       1.0000      1.0079
  358   1 O    8      14.300001   18.160002   12.560000       6.0000     15.9994
  359   2 H    1      14.840001   18.950001   12.810000       1.0000      1.0079
  360   2 H    1      14.640001   17.870001   11.700001       1.0000      1.0079
  361   1 O    8     -24.340000    5.040000   32.790001       6.0000     15.9994
  362   2 H    1     -24.530001    4.690000   33.670002       1.0000      1.0079
  363   2 H    1     -23.430002    4.590000   32.480003       1.0000      1.0079
  364   1 O    8      -3.400000   65.380005   17.780001       6.0000     15.9994
  365   2 H    1      -2.880000   64.620003   17.530001       1.0000      1.0079
  366   2 H    1      -3.880000   65.610001   16.940001       1.0000      1.0079
  367   1 O    8       4.230000   22.139999   12.250000       6.0000     15.9994
  368   2 H    1       5.130000   22.299999   12.550001       1.0000      1.0079
  369   2 H    1       4.320000   21.890001   11.280001       1.0000      1.0079
  370   1 O    8     -15.760001   -4.020000   29.570004       6.0000     15.9994
  371   2 H    1     -14.880000   -4.360000   29.900002       1.0000      1.0079
  372   2 H    1     -15.530001   -3.610000   28.660002       1.0000      1.0079
  373   1 O    8      -6.030001   -3.870000   32.580002       6.0000     15.9994
  374   2 H    1      -6.370000   -4.090000   33.480000       1.0000      1.0079
  375   2 H    1      -6.750000   -3.500000   32.060001       1.0000      1.0079
  376   1 O    8     -10.350000   19.300001   13.160001       6.0000     15.9994
  377   2 H    1      -9.930000   19.670002   12.290001       1.0000      1.0079
  378   2 H    1     -10.160000   18.370001   13.050001       1.0000      1.0079
  379   1 O    8      -2.270000  -19.850002   18.330000       6.0000     15.9994
  380   2 H    1      -2.440000  -20.820000   18.520000       1.0000      1.0079
  381   2 H    1      -3.160000  -19.420002   18.320002       1.0000      1.0079
  382   1 O    8       6.140000   -5.390000   32.340004       6.0000     15.9994
  383   2 H    1       6.040000   -5.060000   33.270000       1.0000      1.0079
  384   2 H    1       6.220000   -4.400000   32.010002       1.0000      1.0079
  385   1 O    8      -8.900001   37.670002   18.560001       6.0000     15.9994
  386   2 H    1      -9.820001   37.410004   18.440001       1.0000      1.0079
  387   2 H    1      -8.360001   36.980003   19.060001       1.0000      1.0079
  388   1 O    8     -11.480000   10.450001   12.790001       6.0000     15.9994
  389   2 H    1     -11.230000   10.550001   13.760000       1.0000      1.0079
  390   2 H    1     -11.360001    9.550000   12.510000       1.0000      1.0079
  391   1 O    8       3.500000   13.740001   22.470001       6.0000     15.9994
  392   2 H    1       2.980000   13.440001   21.700001       1.0000      1.0079
  393   2 H    1       4.410000   13.740001   22.150002       1.0000      1.0079
  394   1 O    8       5.300000   36.990002   18.150002       6.0000     15.9994
  395   2 H    1      13.240002   23.110001   17.660000       1.0000      1.0079
  396   2 H    1       5.340000   36.220001   17.540001       1.0000      1.0079
  397   1 O    8      18.470001    4.390000   17.310001       6.0000     15.9994
  398   2 H    1      19.190002    3.800000   17.030001       1.0000      1.0079
  399   2 H    1      18.090002    3.830000   18.060001       1.0000      1.0079
  400   1 O    8      28.180000   14.550000   24.000000       6.0000     15.9994
  401   2 H    1      28.000002   14.610001   23.000002       1.0000      1.0079
  402   2 H    1      27.480001   15.170001   24.230001       1.0000      1.0079
  403   1 O    8      20.210001   48.150002   32.510002       6.0000     15.9994
  404   2 H    1      20.570002   49.030003   32.170002       1.0000      1.0079
  405   2 H    1      20.370003   48.060001   33.510002       1.0000      1.0079
  406   1 O    8       4.430000    6.000000   14.380001       6.0000     15.9994
  407   2 H    1       5.070000    5.630000   15.030001       1.0000      1.0079
  408   2 H    1       4.890000    6.630001   13.790001       1.0000      1.0079
  409   1 O    8      12.500000   -4.700000   17.180000       6.0000     15.9994
  410   2 H    1      11.610001   -5.080000   17.000000       1.0000      1.0079
  411   2 H    1      12.490001   -4.020000   17.870001       1.0000      1.0079
  412   1 O    8     -29.790001  -16.180000   25.100002       6.0000     15.9994
  413   2 H    1     -30.280001  -16.130001   24.270000       1.0000      1.0079
  414   2 H    1     -29.420002  -15.250001   25.230000       1.0000      1.0079
  415   1 O    8     -15.540000    4.100000   20.820000       6.0000     15.9994
  416   2 H    1     -15.500001    3.140000   20.470001       1.0000      1.0079
  417   2 H    1     -14.610001    4.400000   21.140001       1.0000      1.0079
  418   1 O    8      19.690001   29.250002   16.390001       6.0000     15.9994
  419   2 H    1      19.320000   28.640001   15.690001       1.0000      1.0079
  420   2 H    1      20.470001   28.870001   16.870001       1.0000      1.0079
  421   1 O    8      27.050001    4.560000   11.870001       6.0000     15.9994
  422   2 H    1      27.650002    4.780000   12.570001       1.0000      1.0079
  423   2 H    1      27.790001    4.220000   11.230000       1.0000      1.0079
  424   1 O    8     -18.280001   -0.350000   29.980001       6.0000     15.9994
  425   2 H    1     -19.120001   -0.890000   29.920002       1.0000      1.0079
  426   2 H    1      -9.470000  -15.300001   30.820004       1.0000      1.0079
  427   1 O    8     -12.980001   -0.500000   32.580002       6.0000     15.9994
  428   2 H    1     -12.590000    0.380000   32.660004       1.0000      1.0079
  429   2 H    1     -13.910000   -0.400000   32.980000       1.0000      1.0079
  430   1 O    8     -10.210000   26.160002   31.360001       6.0000     15.9994
  431   2 H    1     -10.640000   26.310001   30.450001       1.0000      1.0079
  432   2 H    1     -10.690001   26.730001   32.029999       1.0000      1.0079
  433   1 O    8     -11.110001  -23.860001   16.660002       6.0000     15.9994
  434   2 H    1     -11.360001  -24.630001   17.350002       1.0000      1.0079
  435   2 H    1     -10.120001  -23.720001   16.720001       1.0000      1.0079
  436   1 O    8      15.710001   18.730001   26.740000       6.0000     15.9994
  437   2 H    1      16.400002   18.400000   26.220001       1.0000      1.0079
  438   2 H    1      24.310001    3.680000   27.550001       1.0000      1.0079
  439   1 O    8       6.620001   14.250001   12.610001       6.0000     15.9994
  440   2 H    1       6.990001   13.450001   12.110001       1.0000      1.0079
  441   2 H    1       6.810000   13.970001   13.510000       1.0000      1.0079
  442   1 O    8      -2.320000   13.250000   33.510002       6.0000     15.9994
  443   2 H    1      -3.260000   13.420000   33.190002       1.0000      1.0079
  444   2 H    1      -1.830000   14.140000   33.530003       1.0000      1.0079
  445   1 O    8     -17.720001    7.580000   23.370001       6.0000     15.9994
  446   2 H    1     -17.840000    7.190001   22.440002       1.0000      1.0079
  447   2 H    1     -18.570002    8.010000   23.600002       1.0000      1.0079
  448   1 O    8       6.820001   -9.850000   17.430000       6.0000     15.9994
  449   2 H    1       7.380000   -9.700001   16.660002       1.0000      1.0079
  450   2 H    1      23.220001  -10.660001   17.260000       1.0000      1.0079
  451   1 O    8      29.290001   10.350000   23.940001       6.0000     15.9994
  452   2 H    1      29.980001   10.900001   23.430002       1.0000      1.0079
  453   2 H    1      28.490002   10.940001   24.110001       1.0000      1.0079
  454   1 O    8       0.530000   -0.320000   28.340000       6.0000     15.9994
  455   2 H    1      -0.400000   -0.250000   28.650002       1.0000      1.0079
  456   2 H    1       0.610000   -1.100000   27.700003       1.0000      1.0079
  457   1 O    8      16.810001   -6.280000   30.610001       6.0000     15.9994
  458   2 H    1      17.080000   -5.480001   30.130003       1.0000      1.0079
  459   2 H    1      16.010000   -6.650000   30.180000       1.0000      1.0079
  460   1 O    8      20.520000    7.050000   19.990002       6.0000     15.9994
  461   2 H    1      20.600002    6.290000   20.590000       1.0000      1.0079
  462   2 H    1       4.380000    7.130001   19.340002       1.0000      1.0079
  463   1 O    8     -11.060000  -21.709999   12.400000       6.0000     15.9994
  464   2 H    1     -10.100000  -21.820002   12.440001       1.0000      1.0079
  465   2 H    1     -11.340000  -22.270000   11.660000       1.0000      1.0079
  466   1 O    8      10.670000   -1.010000   12.120000       6.0000     15.9994
  467   2 H    1      11.040001   -1.960000   12.130001       1.0000      1.0079
  468   2 H    1       9.810000   -1.060000   11.590000       1.0000      1.0079
  469   1 O    8      -0.910000  -15.330001   17.940001       6.0000     15.9994
  470   2 H    1      -0.180000  -16.000000   17.670000       1.0000      1.0079
  471   2 H    1      -0.750000  -14.500000   17.540001       1.0000      1.0079
  472   1 O    8     -12.210001  -13.300000   18.920000       6.0000     15.9994
  473   2 H    1     -12.710000  -12.510000   19.139999       1.0000      1.0079
  474   2 H    1     -11.430000  -13.390001   19.610001       1.0000      1.0079
  475   1 O    8      22.520000   11.080000   24.880001       6.0000     15.9994
  476   2 H    1      21.920002   11.900001   25.090000       1.0000      1.0079
  477   2 H    1      22.000000   10.410000   24.370001       1.0000      1.0079
  478   1 O    8     -23.980000   24.000000   24.200001       6.0000     15.9994
  479   2 H    1     -24.640003   23.549999   23.540001       1.0000      1.0079
  480   2 H    1     -24.390001   24.830000   24.450001       1.0000      1.0079
  481   1 O    8       9.210001    7.450001   25.550001       6.0000     15.9994
  482   2 H    1       8.960000    6.460000   25.389999       1.0000      1.0079
  483   2 H    1       8.530001    7.860000   26.110001       1.0000      1.0079
  484   1 O    8       1.240000   41.370003   17.850000       6.0000     15.9994
  485   2 H    1       1.160000   41.030003   16.890001       1.0000      1.0079
  486   2 H    1       1.310000   40.600006   18.410000       1.0000      1.0079
  487   1 O    8      11.870001   46.480003   16.180000       6.0000     15.9994
  488   2 H    1      12.180000   46.620003   15.220001       1.0000      1.0079
  489   2 H    1      11.510000   45.540005   16.170002       1.0000      1.0079
  490   1 O    8      18.300001   27.810001   14.400001       6.0000     15.9994
  491   2 H    1      17.440001   27.670002   14.850000       1.0000      1.0079
  492   2 H    1      18.580000   26.970001   13.980001       1.0000      1.0079
  493   1 O    8       1.990000   -8.020000   29.590000       6.0000     15.9994
  494   2 H    1      -6.260000    7.030000   28.720001       1.0000      1.0079
  495   2 H    1       1.290000   -7.470000   30.020000       1.0000      1.0079
  496   1 O    8      27.090000   26.280001   15.170001       6.0000     15.9994
  497   2 H    1      19.630001   40.849998   15.080000       1.0000      1.0079
  498   2 H    1      18.390001   41.779999   14.910001       1.0000      1.0079
  499   1 O    8      19.520000   16.460001   22.860001       6.0000     15.9994
  500   2 H    1      18.920000   16.460001   23.660002       1.0000      1.0079
  501   2 H    1      19.950001   15.580001   22.780001       1.0000      1.0079
  502   1 O    8       8.240001    9.220000   16.060001       6.0000     15.9994
  503   2 H    1       9.120001    9.700001   15.870001       1.0000      1.0079
  504   2 H    1       8.320000    8.930000   17.010000       1.0000      1.0079
  505   1 O    8      29.830000   -1.610000   30.120001       6.0000     15.9994
[...]
    899      3      Pt          0.00702306     0.00699146    -0.00824906
    900      3      Pt          0.01621127     0.00113327    -0.00065009
    901      3      Pt          0.01037096    -0.00207946     0.00555562
    902      3      Pt         -0.00419856     0.01433941     0.00832119
    903      3      Pt          0.00711284    -0.00109617     0.00473357
    904      3      Pt          0.00557549     0.00388832    -0.01219093
    905      3      Pt         -0.00954356     0.00407164    -0.00103048
    906      3      Pt          0.00476360    -0.00327107    -0.01275771
 SUM OF ATOMIC FORCES          -0.00926252    -0.00086077     0.05950955     0.06023223

 STRESS| Analytical stress tensor [GPa]
 STRESS|                        x                   y                   z
 STRESS|      x       -2.30833133638E+00   6.04886310301E-03   2.19418200113E-01
 STRESS|      y        6.04886310301E-03  -2.24985557229E+00   1.63786023733E-01
 STRESS|      z        2.19418200113E-01   1.63786023733E-01  -2.95894546991E-01
 STRESS| 1/3 Trace                                            -1.61802715189E+00
 STRESS| Determinant                                          -1.36601593324E+00

 STRESS| Eigenvectors and eigenvalues of the analytical stress tensor [GPa]
 STRESS|                        1                   2                   3
 STRESS| Eigenvalues  -2.33385009154E+00  -2.26140772667E+00  -2.58823637451E-01
 STRESS|      x           0.979945950983     -0.168521096650      0.106332371067
 STRESS|      y           0.160281538051      0.983672647296      0.081841013693
 STRESS|      z          -0.118388182320     -0.063156654013      0.990956848375

 -------------------------------------------------------------------------------
 -                                                                             -
 -                                DBCSR STATISTICS                             -
 -                                                                             -
 -------------------------------------------------------------------------------
 COUNTER                                    TOTAL       BLAS       SMM       ACC
 flops     5 x     5 x   288          78808464000       0.0%    100.0%      0.0%
 flops     5 x     5 x   292          79903026000       0.0%    100.0%      0.0%
 flops     5 x    13 x   288          88788136320       0.0%    100.0%      0.0%
 flops    13 x     5 x   288          88826400000       0.0%    100.0%      0.0%
 flops     5 x    13 x   292          90021304880       0.0%    100.0%      0.0%
 flops    13 x     5 x   292          90060100000       0.0%    100.0%      0.0%
 flops    20 x    13 x   288          91646979840       0.0%    100.0%      0.0%
 flops    13 x    20 x   288          91832832000       0.0%    100.0%      0.0%
 flops    20 x    13 x   292          92919854560       0.0%    100.0%      0.0%
 flops    13 x    20 x   292          93108288000       0.0%    100.0%      0.0%
 flops    13 x    13 x   288          94482865152       0.0%    100.0%      0.0%
 flops    13 x    13 x   292          95795127168       0.0%    100.0%      0.0%
 flops    20 x     5 x   288          99540230400       0.0%    100.0%      0.0%
 flops     5 x    20 x   288          99670579200       0.0%    100.0%      0.0%
 flops    20 x     5 x   292         100922733600       0.0%    100.0%      0.0%
 flops     5 x    20 x   292         101054892800       0.0%    100.0%      0.0%
 flops    20 x    20 x   288         394174771200       0.0%    100.0%      0.0%
 flops    20 x    20 x   292         399649420800       0.0%    100.0%      0.0%
 flops     5 x     5 x   320         525389760000       0.0%    100.0%      0.0%
 flops     5 x    13 x   320         591920908800       0.0%    100.0%      0.0%
 flops    13 x     5 x   320         592176000000       0.0%    100.0%      0.0%
 flops    20 x    13 x   320         610979865600       0.0%    100.0%      0.0%
 flops    13 x    20 x   320         612218880000       0.0%    100.0%      0.0%
 flops    13 x    13 x   320         629885767680       0.0%    100.0%      0.0%
 flops    20 x     5 x   320         663601536000       0.0%    100.0%      0.0%
 flops     5 x    20 x   320         664470528000       0.0%    100.0%      0.0%
 flops    20 x    20 x   320        2627831808000       0.0%    100.0%      0.0%
 flops inhomo. stacks                           0       0.0%      0.0%      0.0%
 flops total                         9.789681E+12       0.0%    100.0%      0.0%
 flops max/rank                    164.004720E+09       0.0%    100.0%      0.0%
 matmuls inhomo. stacks                         0       0.0%      0.0%      0.0%
 matmuls total                          140655232       0.0%    100.0%      0.0%
 number of processed stacks                373760       0.0%    100.0%      0.0%
 average stack size                                     0.0     376.3       0.0
 marketing flops                    27.784489E+12
 -------------------------------------------------------------------------------
 # multiplications                             73
 max memory usage/rank               1.872687E+09
 # max total images/rank                        1
 # max 3D layers                                1
 # MPI messages exchanged                   65408
 MPI messages size (bytes):
  total size                       196.428333E+09
  min size                           2.762496E+06
  max size                           3.077120E+06
  average size                       3.003124E+06
 MPI breakdown and total messages size (bytes):
             size <=      128                   0                        0
       128 < size <=     8192                   0                        0
      8192 < size <=    32768                   0                        0
     32768 < size <=   131072                   0                        0
    131072 < size <=  4194304               65408             196428400000
   4194304 < size <= 16777216                   0                        0
  16777216 < size                               0                        0
 -------------------------------------------------------------------------------
 -                                                                             -
 -                      DBCSR MESSAGE PASSING PERFORMANCE                      -
 -                                                                             -
 -------------------------------------------------------------------------------
 ROUTINE             CALLS      AVE VOLUME [Bytes]
 MP_Bcast               28                     12.
 MP_Allreduce          585                     10.
 MP_Alltoall          2044                1966899.
 MP_ISend             2336                1329597.
 MP_IRecv             2336                1310413.
 -------------------------------------------------------------------------------

 -------------------------------------------------------------------------------
 -                                                                             -
 -                                DBM STATISTICS                               -
 -                                                                             -
 -------------------------------------------------------------------------------
    M  x    N  x    K                                          COUNT     PERCENT
 -------------------------------------------------------------------------------

 -------------------------------------------------------------------------------
 -                                                                             -
 -                                GRID STATISTICS                              -
 -                                                                             -
 -------------------------------------------------------------------------------
 LP    KERNEL             BACKEND                              COUNT     PERCENT
 3     collocate general  REF                               50843624      18.94%
 3     integrate general  REF                               50205120      18.70%
 2     collocate general  REF                               47491610      17.69%
 2     integrate general  REF                               46841040      17.45%
 4     collocate general  REF                               35768467      13.32%
 4     integrate general  REF                               35278488      13.14%
 6     integrate general  REF                                 696488       0.26%
 5     integrate general  REF                                 650570       0.24%
 7     integrate general  REF                                 489979       0.18%
 0     collocate general  REF                                 115968       0.04%
 0     integrate general  REF                                  57984       0.02%
 -------------------------------------------------------------------------------

 MEMORY| Estimated peak process memory [MiB]                                2122

 -------------------------------------------------------------------------------
 ----                             MULTIGRID INFO                            ----
 -------------------------------------------------------------------------------
 count for grid        1:         730834          cutoff [a.u.]          200.00
 count for grid        2:         807408          cutoff [a.u.]           66.67
 count for grid        3:         741190          cutoff [a.u.]           22.22
 count for grid        4:         830763          cutoff [a.u.]            7.41
 total gridlevel count  :        3110195

 -------------------------------------------------------------------------------
 -                                                                             -
 -                         MESSAGE PASSING PERFORMANCE                         -
 -                                                                             -
 -------------------------------------------------------------------------------

 ROUTINE             CALLS      AVE VOLUME [Bytes]
 MP_Group                4
 MP_Bcast              246                2399859.
 MP_Allreduce         1277                   1958.
 MP_Sync                76
 MP_Alltoall          1622               13523426.
 MP_SendRecv           252                  14082.
 MP_ISendRecv        18396                 113680.
 MP_Wait             41188
 MP_ISend            21312                 340325.
 MP_IRecv            21312                 340325.
 MP_Recv               308                2460160.
 MP_Write_All            3                1540656.
 -------------------------------------------------------------------------------


 -------------------------------------------------------------------------------
 -                                                                             -
 -                           R E F E R E N C E S                               -
 -                                                                             -
 -------------------------------------------------------------------------------
 
 CP2K version 2022.1, the CP2K developers group (2022).
 CP2K is freely available from https://www.cp2k.org/ .

 Kuehne,Thomas D.; Iannuzzi,Marcella; Del Ben,Mauro;
 Rybkin,Vladimir V.; Seewald,Patrick; Stein,Frederick; Laino,Teodoro;
 Khaliullin,Rustam Z.; Schuett,Ole; Schiffmann,Florian; Golze,Dorothea;
 Wilhelm,Jan; Chulkov,Sergey; Bani-Hashemian,Mohammad Hossein;
 Weber,Valery; Borstnik,Urban; Taillefumier,Mathieu;
 Jakobovits,Alice Shoshana; Lazzaro,Alfio; Pabst,Hans; Mueller,Tiziano;
 Schade,Robert; Guidon,Manuel; Andermatt,Samuel; Holmberg,Nico;
 Schenter,Gregory K.; Hehn,Anna; Bussy,Augustin; Belleflamme,Fabian;
 Tabacchi,Gloria; Gloess,Andreas; Lass,Michael; Bethune,Iain;
 Mundy,Christopher J.; Plessl,Christian; Watkins,Matt;
 VandeVondele,Joost; Krack,Matthias; Hutter,Juerg. 
 The Journal of Chemical Physics, 152 (19), (2020). 
 CP2K: An electronic structure and molecular dynamics software package -
 Quickstep: Efficient and accurate electronic structure calculations.
 https://doi.org/10.1063/5.0007045

 Goerigk, Lars; Hansen, Andreas; Bauer, Christoph; Ehrlich, Stephan;
 Najibi, Asim; Grimme, Stefan. , 19 (48), (2017). 
 A look at the density functional theory zoo with the advanced GMTKN55 database
 for general main group thermochemistry, kinetics and noncovalent interactions.
 https://doi.org/10.1039/C7CP04913G

 Schuett, Ole; Messmer, Peter; Hutter, Juerg; VandeVondele, Joost. 
 Electronic Structure Calculations on Graphics Processing Units, John
 Wiley & Sons, Ltd, 173-190 (2016). 
 GPU-Accelerated Sparse Matrix-Matrix Multiplication for
 Linear Scaling Density Functional Theory.
 https://doi.org/10.1002/9781118670712.ch8

 Heinecke, A; Henry, G; Hutchinson, M; Pabst, H. 
 Proceedings of Intl. Supercomputing Conference, 981-991 (2016). 
 LIBXSMM: Accelerating Small Matrix Multiplications
 by Runtime Code Generation.
 https://doi.org/10.1109/SC.2016.83

 Borstnik, U; VandeVondele, J; Weber, V; Hutter, J. 
 PARALLEL COMPUTING, 40 (5-6), 47-58 (2014). 
 Sparse matrix multiplication: The distributed block-compressed sparse
 row library.
 https://doi.org/10.1016/j.parco.2014.03.012

 Hutter, J; Iannuzzi, M; Schiffmann, F; VandeVondele, J. 
 WIREs Comput Mol Sci., 4 (1), 15-25 (2014). 
 CP2K: atomistic simulations of condensed matter systems.
 https://doi.org/10.1002/wcms.1159

 Marek, A; Blum, V; Johanni, R; Havu, V; Lang, B; Auckenthaler, T;
 Heinecke, A; Bungartz, H; Lederer, H. 
 Journal of Physics: Condensed Matter, 26 (21), (2014). 
 The ELPA library: scalable parallel eigenvalue solutions for
 electronic structure
 theory and computational science.
 https://doi.org/10.1088/0953-8984/26/21/213201

 Grimme, S; Ehrlich, S; Goerigk, L. 
 JOURNAL OF COMPUTATIONAL CHEMISTRY, 32, 1456 (2011). 
 Effect of the damping function in dispersion corrected density functional theory.
 https://doi.org/10.1002/jcc.21759

 Grimme, S; Antony, J; Ehrlich, S; Krieg, H. 
 JOURNAL OF CHEMICAL PHYSICS, 132 (15), 154104 (2010). 
 A consistent and accurate ab initio parametrization of density
 functional dispersion correction (DFT-D) for the 94 elements H-Pu.
 https://doi.org/10.1063/1.3382344

 VandeVondele, J; Hutter, J. 
 JOURNAL OF CHEMICAL PHYSICS, 127 (11), 114105 (2007). 
 Gaussian basis sets for accurate calculations on molecular systems in
 gas and condensed phases.
 https://doi.org/10.1063/1.2770708

 Krack, M. 
 THEORETICAL CHEMISTRY ACCOUNTS, 114 (1-3), 145-152 (2005). 
 Pseudopotentials for H to Kr optimized for gradient-corrected
 exchange-correlation functionals.
 https://doi.org/10.1007/s00214-005-0655-y

 VandeVondele, J; Krack, M; Mohamed, F; Parrinello, M; Chassaing, T;
 Hutter, J. COMPUTER PHYSICS COMMUNICATIONS, 167 (2), 103-128 (2005). 
 QUICKSTEP: Fast and accurate density functional calculations using a
 mixed Gaussian and plane waves approach.
 https://doi.org/10.1016/j.cpc.2004.12.014

 Frigo, M; Johnson, SG. 
 PROCEEDINGS OF THE IEEE, 93 (2), 216-231 (2005). 
 The design and implementation of FFTW3.
 https://doi.org/10.1109/JPROC.2004.840301

 Hartwigsen, C; Goedecker, S; Hutter, J. 
 PHYSICAL REVIEW B, 58 (7), 3641-3662 (1998). 
 Relativistic separable dual-space Gaussian pseudopotentials from H to Rn.
 https://doi.org/10.1103/PhysRevB.58.3641

 Lippert, G; Hutter, J; Parrinello, M. 
 MOLECULAR PHYSICS, 92 (3), 477-487 (1997). 
 A hybrid Gaussian and plane wave density functional scheme.
 https://doi.org/10.1080/002689797170220

 Perdew, JP; Burke, K; Ernzerhof, M. 
 PHYSICAL REVIEW LETTERS, 77 (18), 3865-3868 (1996). 
 Generalized gradient approximation made simple.
 https://doi.org/10.1103/PhysRevLett.77.3865

 Goedecker, S; Teter, M; Hutter, J. 
 PHYSICAL REVIEW B, 54 (3), 1703-1710 (1996). 
 Separable dual-space Gaussian pseudopotentials.
 https://doi.org/10.1103/PhysRevB.54.1703


 -------------------------------------------------------------------------------
 -                                                                             -
 -                                T I M I N G                                  -
 -                                                                             -
 -------------------------------------------------------------------------------
 SUBROUTINE                       CALLS  ASD         SELF TIME        TOTAL TIME
                                MAXIMUM       AVERAGE  MAXIMUM  AVERAGE  MAXIMUM
 CP2K                                 1  1.0    0.026    0.037  864.356  864.359
 qs_forces                            1  2.0    0.002    0.003  863.965  863.968
 qs_energies                          1  3.0    0.000    0.001  851.351  851.365
 scf_env_do_scf                       1  4.0    0.000    0.001  843.008  843.246
 scf_env_do_scf_inner_loop           72  5.0    0.004    0.014  843.007  843.246
 qs_scf_new_mos                      72  6.0    0.005    0.014  342.990  343.388
 eigensolver                         72  7.0    0.006    0.010  318.687  319.039
 rebuild_ks_matrix                   73  7.0    0.000    0.000  267.235  267.353
 qs_ks_build_kohn_sham_matrix        73  8.0    0.011    0.013  267.235  267.353
 qs_ks_update_qs_env                 72  6.0    0.001    0.001  259.186  259.305
 qs_rho_update_rho_low               73  6.0    0.001    0.001  228.321  228.346
 calculate_rho_elec                  73  7.0    0.170    0.200  228.320  228.346
 sum_up_and_integrate                73  9.0    0.306    0.397  224.304  224.420
 integrate_v_rspace                  73 10.0    0.003    0.003  223.998  224.074
 grid_collocate_task_list            73  8.0  200.460  205.864  200.460  205.864
 grid_integrate_task_list            73 11.0  195.690  200.344  195.690  200.344
 cp_fm_diag_elpa                     72  8.0    0.001    0.001  186.975  187.427
 cp_fm_diag_elpa_base                72  9.0  184.104  184.785  186.664  186.750
 cp_fm_triangular_multiply          216  8.0  129.048  130.693  129.048  130.693
 pw_transfer                       1460 10.9    0.103    0.135   40.514   41.281
 fft_wrap_pw1pw2                   1314 12.0    0.013    0.016   40.054   40.812
 rs_pw_transfer                     588 10.5    0.006    0.007   35.677   40.474
 fft_wrap_pw1pw2_200                876 13.3    3.602    3.932   38.451   39.279
 qs_vxc_create                       73  9.0    0.002    0.003   37.854   38.068
 xc_vxc_pw_create                    73 10.0    0.672    0.716   37.852   38.066
 fft3d_ps                          1314 14.0   14.518   16.422   29.584   30.660
 density_rs2pw                       73  8.0    0.005    0.005   25.499   30.189
 xc_pw_derive                       438 12.0    0.007    0.009   24.130   25.283
 xc_rho_set_and_dset_create          73 11.0    0.356    0.382   20.345   21.695
 potential_pw2rs                     73 11.0    0.027    0.033   21.157   21.219
 mp_waitany                       21312 12.4   15.616   20.594   15.616   20.594
 rs_pw_transfer_RS2PW_200            75 10.0    4.686    5.105   14.456   19.168
 calculate_dm_sparse                 72  7.0    0.022    0.028   17.609   18.278
 cp_dbcsr_plus_fm_fm_t_native        73  8.0    0.004    0.007   17.571   18.258
 -------------------------------------------------------------------------------

 The number of warnings for this run is : 1
 
 -------------------------------------------------------------------------------
  **** **** ******  **  PROGRAM ENDED AT                 2023-11-26 21:46:00.189
 ***** ** ***  *** **   PROGRAM RAN ON                                     cu054
 **    ****   ******    PROGRAM RAN BY                                     jxzhu
 ***** **    ** ** **   PROGRAM PROCESS ID                                 23101
  **** **  *******  **  PROGRAM STOPPED IN /public/home/jxzhu/tmp_calc/af2075565
                                           805657d94fa4669dad6f4b174b0a4fb/calc/
                                           002800.000/pbc
