 DBCSR| CPU Multiplication driver                                           XSMM
 DBCSR| Multrec recursion limit                                              512
 DBCSR| Multiplication stack size                                           1000
 DBCSR| Maximum elements for images                                    UNLIMITED
 DBCSR| Multiplicative factor virtual images                                   1
 DBCSR| Use multiplication densification                                       T
 DBCSR| Multiplication size stacks                                             3
 DBCSR| Use memory pool for CPU allocation                                     F
 DBCSR| Number of 3D layers                                               SINGLE
 DBCSR| Use MPI memory allocation                                              F
 DBCSR| Use RMA algorithm                                                      F
 DBCSR| Use Communication thread                                               T
 DBCSR| Communication thread load                                             87
 DBCSR| MPI: My node id                                                        0
 DBCSR| MPI: Number of nodes                                                 128
 DBCSR| OMP: Current number of threads                                         1
 DBCSR| OMP: Max number of threads                                             1
 DBCSR| Split modifier for TAS multiplication algorithm                  1.0E+00


  **** **** ******  **  PROGRAM STARTED AT               2023-12-02 16:16:57.667
 ***** ** ***  *** **   PROGRAM STARTED ON                                 cu306
 **    ****   ******    PROGRAM STARTED BY                                 jxzhu
 ***** **    ** ** **   PROGRAM PROCESS ID                                 40972
  **** **  *******  **  PROGRAM STARTED IN /public/home/jxzhu/tmp_calc/cc0e0554e
                                           034f4b706d93bcc2d13746d9c39381e/calc/
                                           001800.000/search_lo.000003

 CP2K| version string:                                       CP2K version 2022.1
 CP2K| source code revision number:                                  git:2caeb6f
 CP2K| cp2kflags: omp libint fftw3 libxc elpa parallel mpi3 scalapack cosma xsmm
 CP2K|             plumed2 spglib mkl sirius libvori libbqb
 CP2K| is freely available from                            https://www.cp2k.org/
 CP2K| Program compiled at                           Mon Jul 3 17:37:06 CST 2023
 CP2K| Program compiled on                                                 mu003
 CP2K| Program compiled for                                                local
 CP2K| Data directory path                             /public/home/jxzhu/basis/
 CP2K| Input file name                                                 input.inp
 
 GLOBAL| Force Environment number                                              1
 GLOBAL| Basis set file name                                        BASIS_MOLOPT
 GLOBAL| Potential file name                                      GTH_POTENTIALS
 GLOBAL| MM Potential file name                                     MM_POTENTIAL
 GLOBAL| Coordinate file name                                          coord.xyz
 GLOBAL| Method name                                                        CP2K
 GLOBAL| Project name                                                       cp2k
 GLOBAL| Run type                                                   ENERGY_FORCE
 GLOBAL| FFT library                                                       FFTW3
 GLOBAL| Diagonalization library                                            ELPA
 GLOBAL| Minimum number of eigenvectors for ELPA usage                        16
 GLOBAL| Orthonormality check for eigenvectors                          DISABLED
 GLOBAL| Matrix multiplication library                                     COSMA
 GLOBAL| All-to-all communication in single precision                          F
 GLOBAL| FFTs using library dependent lengths                                  T
 GLOBAL| Grid backend                                                       AUTO
 GLOBAL| Global print level                                               MEDIUM
 GLOBAL| MPI I/O enabled                                                       T
 GLOBAL| Total number of message passing processes                           128
 GLOBAL| Number of threads for this process                                    1
 GLOBAL| This output is from process                                           0
 GLOBAL| Stack size for threads created by OpenMP (OMP_STACKSIZE)        default
 GLOBAL| CPU model name                 Intel(R) Xeon(R) Gold 6338 CPU @ 2.00GHz
 GLOBAL| CPUID                                                              1003

 MEMORY| system memory details [Kb]
 MEMORY|                        rank 0           min           max       average
 MEMORY| MemTotal            263619172     263619172     263619172     263619172
 MEMORY| MemFree             220722400     220722400     224555800     222639203
 MEMORY| Buffers                  3320          3320          3320          3320
 MEMORY| Cached                1216776       1178352       1216776       1197563
 MEMORY| Slab                  1236576       1141172       1236576       1188862
 MEMORY| SReclaimable           240228        240228        240596        240412
 MEMORY| MemLikelyFree       222182724     222182724     225978068     224080498


 *** Fundamental physical constants (SI units) ***

 *** Literature: B. J. Mohr and B. N. Taylor,
 ***             CODATA recommended values of the fundamental physical
 ***             constants: 2006, Web Version 5.1
 ***             http://physics.nist.gov/constants

 Speed of light in vacuum [m/s]                             2.99792458000000E+08
 Magnetic constant or permeability of vacuum [N/A**2]       1.25663706143592E-06
 Electric constant or permittivity of vacuum [F/m]          8.85418781762039E-12
 Planck constant (h) [J*s]                                  6.62606896000000E-34
 Planck constant (h-bar) [J*s]                              1.05457162825177E-34
 Elementary charge [C]                                      1.60217648700000E-19
 Electron mass [kg]                                         9.10938215000000E-31
 Electron g factor [ ]                                     -2.00231930436220E+00
 Proton mass [kg]                                           1.67262163700000E-27
 Fine-structure constant                                    7.29735253760000E-03
 Rydberg constant [1/m]                                     1.09737315685270E+07
 Avogadro constant [1/mol]                                  6.02214179000000E+23
 Boltzmann constant [J/K]                                   1.38065040000000E-23
 Atomic mass unit [kg]                                      1.66053878200000E-27
 Bohr radius [m]                                            5.29177208590000E-11

 *** Conversion factors ***

 [u] -> [a.u.]                                              1.82288848426455E+03
 [Angstrom] -> [Bohr] = [a.u.]                              1.88972613288564E+00
 [a.u.] = [Bohr] -> [Angstrom]                              5.29177208590000E-01
 [a.u.] -> [s]                                              2.41888432650478E-17
 [a.u.] -> [fs]                                             2.41888432650478E-02
 [a.u.] -> [J]                                              4.35974393937059E-18
 [a.u.] -> [N]                                              8.23872205491840E-08
 [a.u.] -> [K]                                              3.15774647902944E+05
 [a.u.] -> [kJ/mol]                                         2.62549961709828E+03
 [a.u.] -> [kcal/mol]                                       6.27509468713739E+02
 [a.u.] -> [Pa]                                             2.94210107994716E+13
 [a.u.] -> [bar]                                            2.94210107994716E+08
 [a.u.] -> [atm]                                            2.90362800883016E+08
 [a.u.] -> [eV]                                             2.72113838565563E+01
 [a.u.] -> [Hz]                                             6.57968392072181E+15
 [a.u.] -> [1/cm] (wave numbers)                            2.19474631370540E+05
 [a.u./Bohr**2] -> [1/cm]                                   5.14048714338585E+03
 

 CELL_TOP| Volume [angstrom^3]:                                     17614.982639
 CELL_TOP| Vector a [angstrom    16.869     0.000     0.000   |a| =    16.869000
 CELL_TOP| Vector b [angstrom    -8.434    14.609     0.000   |b| =    16.869015
 CELL_TOP| Vector c [angstrom     0.000     0.000    71.478   |c| =    71.478000
 CELL_TOP| Angle (b,c), alpha [degree]:                                90.000000
 CELL_TOP| Angle (a,c), beta  [degree]:                                90.000000
 CELL_TOP| Angle (a,b), gamma [degree]:                               119.999970
 CELL_TOP| Numerically orthorhombic:                                          NO
 
 GENERATE|  Preliminary Number of Bonds generated:                             0
 GENERATE|  Achieved consistency in connectivity generation.

 CELL| Volume [angstrom^3]:                                         17614.982639
 CELL| Vector a [angstrom]:      16.869     0.000     0.000   |a| =    16.869000
 CELL| Vector b [angstrom]:      -8.434    14.609     0.000   |b| =    16.869015
 CELL| Vector c [angstrom]:       0.000     0.000    71.478   |c| =    71.478000
 CELL| Angle (b,c), alpha [degree]:                                    90.000000
 CELL| Angle (a,c), beta  [degree]:                                    90.000000
 CELL| Angle (a,b), gamma [degree]:                                   119.999970
 CELL| Numerically orthorhombic:                                              NO

 CELL_REF| Volume [angstrom^3]:                                     17614.982639
 CELL_REF| Vector a [angstrom    16.869     0.000     0.000   |a| =    16.869000
 CELL_REF| Vector b [angstrom    -8.434    14.609     0.000   |b| =    16.869015
 CELL_REF| Vector c [angstrom     0.000     0.000    71.478   |c| =    71.478000
 CELL_REF| Angle (b,c), alpha [degree]:                                90.000000
 CELL_REF| Angle (a,c), beta  [degree]:                                90.000000
 CELL_REF| Angle (a,b), gamma [degree]:                               119.999970
 CELL_REF| Numerically orthorhombic:                                          NO

 *******************************************************************************
 *******************************************************************************
 **                                                                           **
 **     #####                         ##              ##                      **
 **    ##   ##            ##          ##              ##                      **
 **   ##     ##                       ##            ######                    **
 **   ##     ##  ##   ##  ##   #####  ##  ##   ####   ##    #####    #####    **
 **   ##     ##  ##   ##  ##  ##      ## ##   ##      ##   ##   ##  ##   ##   **
 **   ##  ## ##  ##   ##  ##  ##      ####     ###    ##   ######   ######    **
 **    ##  ###   ##   ##  ##  ##      ## ##      ##   ##   ##       ##        **
 **     #######   #####   ##   #####  ##  ##  ####    ##    #####   ##        **
 **           ##                                                    ##        **
 **                                                                           **
 **                                                ... make the atoms dance   **
 **                                                                           **
 **            Copyright (C) by CP2K developers group (2000-2022)             **
 **                      J. Chem. Phys. 152, 194103 (2020)                    **
 **                                                                           **
 *******************************************************************************

 DFT| Spin restricted Kohn-Sham (RKS) calculation                            RKS
 DFT| Multiplicity                                                             1
 DFT| Number of spin states                                                    1
 DFT| Charge                                                                   0
 DFT| Self-interaction correction (SIC)                                       NO
 DFT| Cutoffs: density                                              1.000000E-10
 DFT|          gradient                                             1.000000E-10
 DFT|          tau                                                  1.000000E-10
 DFT|          cutoff_smoothing_range                               0.000000E+00
 DFT| XC density smoothing                                                  NONE
 DFT| XC derivatives                                                          PW

 FUNCTIONAL| PBE:
 FUNCTIONAL| J.P.Perdew, K.Burke, M.Ernzerhof, Phys. Rev. Letter, vol. 77, n 18,
 FUNCTIONAL|  pp. 3865-3868, (1996){spin unpolarized}                           

 vdW POTENTIAL|                                                   Pair Potential
 vdW POTENTIAL|          DFT-D3 (Version 3.1)
 vdW POTENTIAL|          Potential Form: S. Grimme et al, JCP 132: 154104 (2010)
 vdW POTENTIAL|          Zero Damping
 vdW POTENTIAL|          Cutoff Radius [Bohr]:                             20.00
 vdW POTENTIAL|          s6 Scaling Factor:                               1.0000
 vdW POTENTIAL|          sr6 Scaling Factor:                              1.2170
 vdW POTENTIAL|          s8 Scaling Factor:                               0.7220
 vdW POTENTIAL|          Cutoff for CN calculation:                   0.1000E-05

 QS| Method:                                                                 GPW
 QS| Density plane wave grid type                        NON-SPHERICAL FULLSPACE
 QS| Number of grid levels:                                                    4
 QS| Density cutoff [a.u.]:                                                200.0
 QS| Multi grid cutoff [a.u.]: 1) grid level                               200.0
 QS|                           2) grid level                                66.7
 QS|                           3) grid level                                22.2
 QS|                           4) grid level                                 7.4
 QS| Grid level progression factor:                                          3.0
 QS| Relative density cutoff [a.u.]:                                        20.0
 QS| Interaction thresholds: eps_pgf_orb:                                3.2E-07
 QS|                         eps_filter_matrix:                          0.0E+00
 QS|                         eps_core_charge:                            1.0E-15
 QS|                         eps_rho_gspace:                             1.0E-13
 QS|                         eps_rho_rspace:                             1.0E-13
 QS|                         eps_gvg_rspace:                             3.2E-07
 QS|                         eps_ppl:                                    1.0E-02
 QS|                         eps_ppnl:                                   3.2E-09


 ATOMIC KIND INFORMATION

  1. Atomic kind: O                                     Number of atoms:     101

     Orbital Basis Set                                        DZVP-MOLOPT-SR-GTH

       Number of orbital shell sets:                                           1
       Number of orbital shells:                                               5
       Number of primitive Cartesian functions:                                5
       Number of Cartesian basis functions:                                   14
       Number of spherical basis functions:                                   13
       Norm type:                                                              2

       Normalised Cartesian orbitals:

                        Set   Shell   Orbital            Exponent    Coefficient

                          1       1    2s               10.389228       0.396646
                                                         3.849621       0.208811
                                                         1.388401      -0.301641
                                                         0.496955      -0.274061
                                                         0.162492      -0.033677

                          1       2    3s               10.389228       0.303673
                                                         3.849621       0.240943
                                                         1.388401      -0.313066
                                                         0.496955      -0.043055
                                                         0.162492       0.213991

                          1       3    3px              10.389228      -1.530415
                                                         3.849621      -1.371928
                                                         1.388401      -0.761951
                                                         0.496955      -0.253695
                                                         0.162492      -0.035541
                          1       3    3py              10.389228      -1.530415
                                                         3.849621      -1.371928
                                                         1.388401      -0.761951
                                                         0.496955      -0.253695
                                                         0.162492      -0.035541
                          1       3    3pz              10.389228      -1.530415
                                                         3.849621      -1.371928
                                                         1.388401      -0.761951
                                                         0.496955      -0.253695
                                                         0.162492      -0.035541

                          1       4    4px              10.389228      -0.565392
                                                         3.849621      -0.038231
                                                         1.388401      -0.382373
                                                         0.496955       0.179070
                                                         0.162492       0.122714
                          1       4    4py              10.389228      -0.565392
                                                         3.849621      -0.038231
                                                         1.388401      -0.382373
                                                         0.496955       0.179070
                                                         0.162492       0.122714
                          1       4    4pz              10.389228      -0.565392
                                                         3.849621      -0.038231
                                                         1.388401      -0.382373
                                                         0.496955       0.179070
                                                         0.162492       0.122714

                          1       5    4dx2             10.389228       1.867377
                                                         3.849621       0.670994
                                                         1.388401       1.353441
                                                         0.496955       0.273538
                                                         0.162492       0.006620
                          1       5    4dxy             10.389228       3.234392
                                                         3.849621       1.162195
                                                         1.388401       2.344229
                                                         0.496955       0.473781
                                                         0.162492       0.011466
                          1       5    4dxz             10.389228       3.234392
                                                         3.849621       1.162195
                                                         1.388401       2.344229
                                                         0.496955       0.473781
                                                         0.162492       0.011466
                          1       5    4dy2             10.389228       1.867377
                                                         3.849621       0.670994
                                                         1.388401       1.353441
                                                         0.496955       0.273538
                                                         0.162492       0.006620
                          1       5    4dyz             10.389228       3.234392
                                                         3.849621       1.162195
                                                         1.388401       2.344229
                                                         0.496955       0.473781
                                                         0.162492       0.011466
                          1       5    4dz2             10.389228       1.867377
                                                         3.849621       0.670994
                                                         1.388401       1.353441
                                                         0.496955       0.273538
                                                         0.162492       0.006620

       Atomic covalent radius [Angstrom]:                                  0.730

       Atomic van der Waals radius [Angstrom]:                             1.520

     GTH Potential information for                                    GTH-PBE-q6

       Description:                       Goedecker-Teter-Hutter pseudopotential
                                           Goedecker et al., PRB 54, 1703 (1996)
                                          Hartwigsen et al., PRB 58, 3641 (1998)
                                                      Krack, TCA 114, 145 (2005)

       Gaussian exponent of the core charge distribution:               8.360253
       Electronic configuration (s p d ...):                               2   4

       Parameters of the local part of the GTH pseudopotential:

                          rloc        C1          C2          C3          C4
                        0.244554  -16.667215    2.487311

       Parameters of the non-local part of the GTH pseudopotential:

                   l      r(l)      h(i,j,l)

                   0    0.220956   18.337458
                   1    0.211332

  2. Atomic kind: H                                     Number of atoms:     202

     Orbital Basis Set                                        DZVP-MOLOPT-SR-GTH

       Number of orbital shell sets:                                           1
       Number of orbital shells:                                               3
       Number of primitive Cartesian functions:                                5
       Number of Cartesian basis functions:                                    5
       Number of spherical basis functions:                                    5
       Norm type:                                                              2

       Normalised Cartesian orbitals:

                        Set   Shell   Orbital            Exponent    Coefficient

                          1       1    2s               10.068468      -0.133023
                                                         2.680223      -0.177618
                                                         0.791502      -0.258419
                                                         0.239116      -0.107525
                                                         0.082193      -0.014019

                          1       2    3s               10.068468       0.344673
                                                         2.680223       1.819821
                                                         0.791502      -0.999069
                                                         0.239116       0.017430
                                                         0.082193       0.082660

                          1       3    3px              10.068468       0.155326
                                                         2.680223       0.367157
                                                         0.791502       0.311480
                                                         0.239116       0.080105
                                                         0.082193       0.033440
                          1       3    3py              10.068468       0.155326
                                                         2.680223       0.367157
                                                         0.791502       0.311480
                                                         0.239116       0.080105
                                                         0.082193       0.033440
                          1       3    3pz              10.068468       0.155326
                                                         2.680223       0.367157
                                                         0.791502       0.311480
                                                         0.239116       0.080105
                                                         0.082193       0.033440

       Atomic covalent radius [Angstrom]:                                  0.320

       Atomic van der Waals radius [Angstrom]:                             1.090

     GTH Potential information for                                    GTH-PBE-q1

       Description:                       Goedecker-Teter-Hutter pseudopotential
                                           Goedecker et al., PRB 54, 1703 (1996)
                                          Hartwigsen et al., PRB 58, 3641 (1998)
                                                      Krack, TCA 114, 145 (2005)

       Gaussian exponent of the core charge distribution:              12.500000
       Electronic configuration (s p d ...):                                   1

       Parameters of the local part of the GTH pseudopotential:

                          rloc        C1          C2          C3          C4
                        0.200000   -4.178900    0.724463

  3. Atomic kind: Pt                                    Number of atoms:     216

     Orbital Basis Set                      DZVP-A5-Q10-323-MOL-T1-DERIVED_SET-1

       Number of orbital shell sets:                                           1
       Number of orbital shells:                                               6
       Number of primitive Cartesian functions:                                5
       Number of Cartesian basis functions:                                   23
       Number of spherical basis functions:                                   20
       Norm type:                                                              2

       Normalised Cartesian orbitals:

                        Set   Shell   Orbital            Exponent    Coefficient

                          1       1    2s                2.521825       0.177473
                                                         1.453920      -0.063399
                                                         0.614053      -0.407089
                                                         0.232656       0.262254
                                                         0.074788       0.047371

                          1       2    3s                2.521825      -0.049056
                                                         1.453920       0.044904
                                                         0.614053      -0.009756
                                                         0.232656      -0.144709
                                                         0.074788       0.144085

                          1       3    3px               2.521825      -0.317572
                                                         1.453920       0.534826
                                                         0.614053      -0.489458
                                                         0.232656       0.245631
                                                         0.074788       0.018221
                          1       3    3py               2.521825      -0.317572
                                                         1.453920       0.534826
                                                         0.614053      -0.489458
                                                         0.232656       0.245631
                                                         0.074788       0.018221
                          1       3    3pz               2.521825      -0.317572
                                                         1.453920       0.534826
                                                         0.614053      -0.489458
                                                         0.232656       0.245631
                                                         0.074788       0.018221

                          1       4    4dx2              2.521825       3.008522
                                                         1.453920      -1.224251
                                                         0.614053       0.225691
                                                         0.232656       0.125144
                                                         0.074788      -0.015348
                          1       4    4dxy              2.521825       5.210912
                                                         1.453920      -2.120465
                                                         0.614053       0.390909
                                                         0.232656       0.216756
                                                         0.074788      -0.026584
                          1       4    4dxz              2.521825       5.210912
                                                         1.453920      -2.120465
                                                         0.614053       0.390909
                                                         0.232656       0.216756
                                                         0.074788      -0.026584
                          1       4    4dy2              2.521825       3.008522
                                                         1.453920      -1.224251
                                                         0.614053       0.225691
                                                         0.232656       0.125144
                                                         0.074788      -0.015348
                          1       4    4dyz              2.521825       5.210912
                                                         1.453920      -2.120465
                                                         0.614053       0.390909
                                                         0.232656       0.216756
                                                         0.074788      -0.026584
                          1       4    4dz2              2.521825       3.008522
                                                         1.453920      -1.224251
                                                         0.614053       0.225691
                                                         0.232656       0.125144
                                                         0.074788      -0.015348

                          1       5    5dx2              2.521825       0.698026
                                                         1.453920      -1.511486
                                                         0.614053      -0.335394
                                                         0.232656      -0.025564
                                                         0.074788      -0.002699
                          1       5    5dxy              2.521825       1.209017
                                                         1.453920      -2.617970
                                                         0.614053      -0.580920
                                                         0.232656      -0.044277
                                                         0.074788      -0.004674
                          1       5    5dxz              2.521825       1.209017
                                                         1.453920      -2.617970
                                                         0.614053      -0.580920
                                                         0.232656      -0.044277
                                                         0.074788      -0.004674
                          1       5    5dy2              2.521825       0.698026
                                                         1.453920      -1.511486
                                                         0.614053      -0.335394
                                                         0.232656      -0.025564
                                                         0.074788      -0.002699
                          1       5    5dyz              2.521825       1.209017
                                                         1.453920      -2.617970
                                                         0.614053      -0.580920
                                                         0.232656      -0.044277
                                                         0.074788      -0.004674
                          1       5    5dz2              2.521825       0.698026
                                                         1.453920      -1.511486
                                                         0.614053      -0.335394
                                                         0.232656      -0.025564
                                                         0.074788      -0.002699

                          1       6    6dx2              2.521825       0.831079
                                                         1.453920      -0.709226
                                                         0.614053      -0.137351
                                                         0.232656       0.068642
                                                         0.074788       0.011745
                          1       6    6dxy              2.521825       1.439472
                                                         1.453920      -1.228415
                                                         0.614053      -0.237899
                                                         0.232656       0.118891
                                                         0.074788       0.020343
                          1       6    6dxz              2.521825       1.439472
                                                         1.453920      -1.228415
                                                         0.614053      -0.237899
                                                         0.232656       0.118891
                                                         0.074788       0.020343
                          1       6    6dy2              2.521825       0.831079
                                                         1.453920      -0.709226
                                                         0.614053      -0.137351
                                                         0.232656       0.068642
                                                         0.074788       0.011745
                          1       6    6dyz              2.521825       1.439472
                                                         1.453920      -1.228415
                                                         0.614053      -0.237899
                                                         0.232656       0.118891
                                                         0.074788       0.020343
                          1       6    6dz2              2.521825       0.831079
                                                         1.453920      -0.709226
                                                         0.614053      -0.137351
                                                         0.232656       0.068642
                                                         0.074788       0.011745

       Atomic covalent radius [Angstrom]:                                  1.300

       Atomic van der Waals radius [Angstrom]:                             1.750

     GTH Potential information for                                   GTH-PBE-q10

       Description:                       Goedecker-Teter-Hutter pseudopotential
                                           Goedecker et al., PRB 54, 1703 (1996)
                                          Hartwigsen et al., PRB 58, 3641 (1998)
                                                      Krack, TCA 114, 145 (2005)

       Gaussian exponent of the core charge distribution:               1.317676
       Electronic configuration (s p d ...):                           1   0   9

       Parameters of the local part of the GTH pseudopotential:

                          rloc        C1          C2          C3          C4
                        0.616000   11.313635

       Parameters of the non-local part of the GTH pseudopotential:

                   l      r(l)      h(i,j,l)

                   0    0.550904    4.733491   -1.784594
                                   -1.784594    2.303901
                   1    0.674138    2.534798   -1.778066
                                   -1.778066    2.103836
                   2    0.457392   -7.264011    2.558665
                                    2.558665   -2.901253


 MOLECULE KIND INFORMATION


 All atoms are their own molecule, skipping detailed information


 TOTAL NUMBERS AND MAXIMUM NUMBERS

  Total number of            - Atomic kinds:                                   3
                             - Atoms:                                        519
                             - Shell sets:                                   519
                             - Shells:                                      2407
                             - Primitive Cartesian functions:               2595
                             - Cartesian basis functions:                   7392
                             - Spherical basis functions:                   6643

  Maximum angular momentum of- Orbital basis functions:                        2
                             - Local part of the GTH pseudopotential:          2
                             - Non-local part of the GTH pseudopotential:      4


 MODULE QUICKSTEP:  ATOMIC COORDINATES IN angstrom

 Atom  Kind  Element       X           Y           Z          Z(eff)       Mass
    1   1 O    8       1.160000  -13.400001   29.788001       6.0000     15.9994
    2   2 H    1       0.490000  -13.610001   29.128001       1.0000      1.0079
    3   2 H    1       0.620000  -13.330001   30.608001       1.0000      1.0079
    4   1 O    8      -1.860000    3.480000   31.388001       6.0000     15.9994
    5   2 H    1      -2.600000    2.950000   31.768001       1.0000      1.0079
    6   2 H    1      -1.340000    3.750000   32.198000       1.0000      1.0079
    7   1 O    8     -13.690001  -23.280001   32.258001       6.0000     15.9994
    8   2 H    1     -12.890000  -23.460003   32.938001       1.0000      1.0079
    9   2 H    1     -13.420000  -22.880001   31.378002       1.0000      1.0079
   10   1 O    8       2.450000   10.060000   32.728002       6.0000     15.9994
   11   2 H    1       1.550000   10.100000   33.028001       1.0000      1.0079
   12   2 H    1       2.420000   10.060000   31.708001       1.0000      1.0079
   13   1 O    8       4.960000   26.200001   36.238001       6.0000     15.9994
   14   2 H    1       4.990000   25.200003   36.248001       1.0000      1.0079
   15   2 H    1       4.490000   26.490002   37.018001       1.0000      1.0079
   16   1 O    8       1.110000   34.820000   29.888001       6.0000     15.9994
   17   2 H    1       0.600000   33.970001   29.948001       1.0000      1.0079
   18   2 H    1      10.180000   20.150002   29.118001       1.0000      1.0079
   19   1 O    8       7.750000   -4.360000   39.708001       6.0000     15.9994
   20   2 H    1       8.160001   -3.820000   39.018001       1.0000      1.0079
   21   2 H    1       7.320001   -3.830000   40.448001       1.0000      1.0079
   22   1 O    8      -6.130000  -22.400000   38.568002       6.0000     15.9994
   23   2 H    1      -6.830000  -22.620001   37.838003       1.0000      1.0079
   24   2 H    1      -5.760000  -21.530001   38.378002       1.0000      1.0079
   25   1 O    8      23.370001   12.250000   32.578001       6.0000     15.9994
   26   2 H    1      23.450001   11.390000   32.928001       1.0000      1.0079
   27   2 H    1      22.850000   12.000000   31.748000       1.0000      1.0079
   28   1 O    8      29.540003  -26.850002   32.428001       6.0000     15.9994
   29   2 H    1      29.300001  -26.250002   33.178001       1.0000      1.0079
   30   2 H    1      46.590004  -27.720001   32.868001       1.0000      1.0079
   31   1 O    8      -3.320000    9.020000   36.298002       6.0000     15.9994
   32   2 H    1     -12.390001   23.340000   37.048000       1.0000      1.0079
   33   2 H    1      -2.460000    8.750001   36.608001       1.0000      1.0079
   34   1 O    8      14.860001   -7.530000   29.908000       6.0000     15.9994
   35   2 H    1      15.050001   -7.190001   28.998000       1.0000      1.0079
   36   2 H    1      14.880000   -8.510000   29.798001       1.0000      1.0079
   37   1 O    8      -8.380001   14.480001   29.698001       6.0000     15.9994
   38   2 H    1      -9.260000   14.400001   29.318000       1.0000      1.0079
   39   2 H    1      -7.850000   14.890001   28.968001       1.0000      1.0079
   40   1 O    8      -2.910000   -4.570000   29.268001       6.0000     15.9994
   41   2 H    1      -1.920000   -4.720000   29.388001       1.0000      1.0079
   42   2 H    1      -3.430000   -5.350000   29.428001       1.0000      1.0079
   43   1 O    8     -25.770000   -7.020000   30.418001       6.0000     15.9994
   44   2 H    1     -25.560001   -6.930000   31.378002       1.0000      1.0079
   45   2 H    1     -25.060001   -7.670000   30.068001       1.0000      1.0079
   46   1 O    8       2.150000   -4.430000   34.088001       6.0000     15.9994
   47   2 H    1       2.180000   -3.430000   33.798002       1.0000      1.0079
   48   2 H    1       1.640000   -4.560000   34.898002       1.0000      1.0079
   49   1 O    8      26.120003    2.570000   32.638001       6.0000     15.9994
   50   2 H    1      26.650002    1.850000   32.938001       1.0000      1.0079
   51   2 H    1       9.670001    3.310000   33.108001       1.0000      1.0079
   52   1 O    8      -4.240000    7.490000   29.028001       6.0000     15.9994
   53   2 H    1      -5.170000    7.370000   29.248000       1.0000      1.0079
   54   2 H    1      -3.610000    6.770000   29.528001       1.0000      1.0079
   55   1 O    8      27.240002   15.770000   31.418001       6.0000     15.9994
   56   2 H    1      26.660002   16.530001   31.078000       1.0000      1.0079
   57   2 H    1      26.639999   14.990001   31.538000       1.0000      1.0079
   58   1 O    8     -22.940002   10.990001   39.488002       6.0000     15.9994
   59   2 H    1     -22.320002   11.520000   39.958001       1.0000      1.0079
   60   2 H    1     -23.630001   10.580001   40.088001       1.0000      1.0079
   61   1 O    8       8.990001   21.070002   33.428001       6.0000     15.9994
   62   2 H    1       8.920000   21.620003   34.328001       1.0000      1.0079
   63   2 H    1       9.940001   20.810001   33.328000       1.0000      1.0079
   64   1 O    8       6.300001   -6.540000   39.838001       6.0000     15.9994
   65   2 H    1       6.880000   -5.690000   39.728002       1.0000      1.0079
   66   2 H    1      -2.030000    7.560000   39.028001       1.0000      1.0079
   67   1 O    8       1.310000   22.070000   29.068001       6.0000     15.9994
   68   2 H    1       0.860000   21.260002   29.468001       1.0000      1.0079
   69   2 H    1       0.720000   22.860001   29.138001       1.0000      1.0079
   70   1 O    8       1.930000   14.730001   37.388002       6.0000     15.9994
   71   2 H    1       2.250000   13.920001   36.938001       1.0000      1.0079
   72   2 H    1       1.390000   15.260000   36.788001       1.0000      1.0079
   73   1 O    8     -21.250000   30.950001   29.798001       6.0000     15.9994
   74   2 H    1      -4.350000   31.030003   30.758001       1.0000      1.0079
   75   2 H    1     -22.139999   30.580002   29.538000       1.0000      1.0079
   76   1 O    8       0.120000   -5.270000   32.408000       6.0000     15.9994
   77   2 H    1       0.910000   -4.820000   32.848001       1.0000      1.0079
   78   2 H    1      -0.590000   -5.140000   33.048001       1.0000      1.0079
   79   1 O    8      -0.600000    0.730000   34.768001       6.0000     15.9994
   80   2 H    1      -1.000000    1.590000   34.658001       1.0000      1.0079
   81   2 H    1      -0.860000    0.220000   35.628002       1.0000      1.0079
   82   1 O    8       3.910000    0.130000   30.018001       6.0000     15.9994
   83   2 H    1       3.170000    0.620000   30.518001       1.0000      1.0079
   84   2 H    1       3.810000    0.360000   29.078000       1.0000      1.0079
   85   1 O    8       5.720000  -14.740001   29.068001       6.0000     15.9994
   86   2 H    1       5.060000  -14.030001   29.278001       1.0000      1.0079
   87   2 H    1       5.300000  -15.640001   29.478001       1.0000      1.0079
   88   1 O    8       9.270000   -6.800000   39.508001       6.0000     15.9994
   89   2 H    1       8.630000   -7.480001   39.108001       1.0000      1.0079
   90   2 H    1       8.910000   -5.940001   39.228002       1.0000      1.0079
   91   1 O    8     -18.560001   38.700001   32.658000       6.0000     15.9994
   92   2 H    1     -18.750002   38.880001   31.688001       1.0000      1.0079
   93   2 H    1     -19.430000   38.350002   32.978001       1.0000      1.0079
   94   1 O    8       4.650001    5.480001   34.408001       6.0000     15.9994
   95   2 H    1       5.540000    5.060000   34.468002       1.0000      1.0079
   96   2 H    1       4.150000    5.000000   35.138001       1.0000      1.0079
   97   1 O    8     -39.850002   -8.610001   37.618001       6.0000     15.9994
   98   2 H    1     -40.120003   -8.740000   38.568002       1.0000      1.0079
   99   2 H    1     -38.990002   -8.140000   37.748000       1.0000      1.0079
  100   1 O    8      12.290001   18.100000   30.298002       6.0000     15.9994
  101   2 H    1      11.970000   18.850000   30.788000       1.0000      1.0079
  102   2 H    1      11.960001   18.360001   29.458001       1.0000      1.0079
  103   1 O    8      17.800001   -9.600000   34.508001       6.0000     15.9994
  104   2 H    1       9.420000    5.640000   33.758001       1.0000      1.0079
  105   2 H    1      18.780001   -9.870001   34.678001       1.0000      1.0079
  106   1 O    8      -6.880000  -12.830001   36.048002       6.0000     15.9994
  107   2 H    1      -7.730001  -13.240002   35.848001       1.0000      1.0079
  108   2 H    1      -6.750000  -12.140001   35.388001       1.0000      1.0079
  109   1 O    8     -32.290001   -1.570000   37.908002       6.0000     15.9994
  110   2 H    1     -31.840002   -2.310000   38.348003       1.0000      1.0079
  111   2 H    1     -32.470001   -0.990000   38.618001       1.0000      1.0079
  112   1 O    8      24.230001   13.730000   36.878002       6.0000     15.9994
  113   2 H    1      23.620003   13.050001   36.468001       1.0000      1.0079
  114   2 H    1      24.970001   13.170000   37.088001       1.0000      1.0079
  115   1 O    8       9.680000   41.360001   28.958001       6.0000     15.9994
  116   2 H    1       9.140000   42.180004   29.318000       1.0000      1.0079
  117   2 H    1      27.470001   41.340004   29.368000       1.0000      1.0079
  118   1 O    8      -2.340000   -9.030001   37.978002       6.0000     15.9994
  119   2 H    1      -1.380000   -9.210001   37.508001       1.0000      1.0079
  120   2 H    1      -3.020000   -9.480001   37.408000       1.0000      1.0079
  121   1 O    8      -9.780001    3.540000   35.208001       6.0000     15.9994
  122   2 H    1     -10.050000    2.960000   34.408001       1.0000      1.0079
  123   2 H    1      -8.980000    4.030000   34.848002       1.0000      1.0079
  124   1 O    8       8.740000  -11.620001   30.008001       6.0000     15.9994
  125   2 H    1       7.790000  -11.730001   30.488001       1.0000      1.0079
  126   2 H    1       8.630000  -11.900001   29.078000       1.0000      1.0079
  127   1 O    8      -4.240000   33.940002   39.018001       6.0000     15.9994
  128   2 H    1      -4.830000   34.640003   38.698001       1.0000      1.0079
  129   2 H    1      -3.860000   33.450005   38.258001       1.0000      1.0079
  130   1 O    8       3.940000   -5.540000   38.778001       6.0000     15.9994
  131   2 H    1       3.510000   -4.700000   39.028001       1.0000      1.0079
  132   2 H    1       4.690000   -5.740000   39.448001       1.0000      1.0079
  133   1 O    8      12.800001   -6.130000   33.818001       6.0000     15.9994
  134   2 H    1      12.640000   -7.070000   33.578000       1.0000      1.0079
  135   2 H    1      20.490000    8.920000   33.358001       1.0000      1.0079
  136   1 O    8     -12.540001   -5.740000   33.828001       6.0000     15.9994
  137   2 H    1     -13.410001   -5.240001   33.898001       1.0000      1.0079
  138   2 H    1     -12.230001   -5.730000   34.718002       1.0000      1.0079
  139   1 O    8      15.130001   12.610001   32.068000       6.0000     15.9994
  140   2 H    1      -1.670000   11.640000   32.358001       1.0000      1.0079
  141   2 H    1      15.640001   12.700001   31.168001       1.0000      1.0079
  142   1 O    8      11.710000   -5.970000   36.578001       6.0000     15.9994
  143   2 H    1       3.660000    8.840000   35.698001       1.0000      1.0079
  144   2 H    1      11.650001   -5.160000   37.088001       1.0000      1.0079
  145   1 O    8     -17.440001   13.190001   29.918001       6.0000     15.9994
  146   2 H    1     -17.820000   12.800001   29.048002       1.0000      1.0079
  147   2 H    1     -17.870001   14.080001   30.038001       1.0000      1.0079
  148   1 O    8     -25.590000    9.840000   29.828000       6.0000     15.9994
  149   2 H    1     -25.000000   10.600000   29.768001       1.0000      1.0079
  150   2 H    1     -25.459999    9.560000   30.748000       1.0000      1.0079
  151   1 O    8      -4.560000   -3.730000   39.198001       6.0000     15.9994
  152   2 H    1      -4.550000   -2.770000   39.318002       1.0000      1.0079
  153   2 H    1      -4.310000   -3.950000   40.158002       1.0000      1.0079
  154   1 O    8      -4.560000    6.700000   32.498001       6.0000     15.9994
  155   2 H    1      -3.940000    6.540000   31.798001       1.0000      1.0079
  156   2 H    1      -4.110000    7.380000   33.098001       1.0000      1.0079
  157   1 O    8      19.230001   27.120001   32.958001       6.0000     15.9994
  158   2 H    1      18.390001   27.750000   32.938001       1.0000      1.0079
  159   2 H    1      20.170002   27.620001   33.158001       1.0000      1.0079
  160   1 O    8       8.360001   18.670002   33.718002       6.0000     15.9994
  161   2 H    1       9.230001   18.380001   33.598002       1.0000      1.0079
  162   2 H    1       8.550000   19.660000   33.578000       1.0000      1.0079
  163   1 O    8     -11.950001   12.440001   30.278001       6.0000     15.9994
  164   2 H    1     -11.820001   11.470001   29.968001       1.0000      1.0079
  165   2 H    1     -12.940001   12.540001   30.378001       1.0000      1.0079
  166   1 O    8       0.780000   13.890000   32.858001       6.0000     15.9994
  167   2 H    1      -0.020000   13.450001   32.508001       1.0000      1.0079
  168   2 H    1       0.520000   14.220000   33.888001       1.0000      1.0079
  169   1 O    8       4.870000   14.490002   33.478001       6.0000     15.9994
  170   2 H    1       5.570001   13.890000   33.218001       1.0000      1.0079
  171   2 H    1       4.210001   13.770000   33.668001       1.0000      1.0079
  172   1 O    8       0.590000   14.030001   39.698001       6.0000     15.9994
  173   2 H    1       1.200000   14.390000   38.958001       1.0000      1.0079
  174   2 H    1       1.110000   13.690001   40.388002       1.0000      1.0079
  175   1 O    8      13.710001   10.210000   30.138001       6.0000     15.9994
  176   2 H    1      13.280001    9.430000   29.768001       1.0000      1.0079
  177   2 H    1      13.030001   10.940001   30.168001       1.0000      1.0079
  178   1 O    8     -33.420002   -8.360001   36.928001       6.0000     15.9994
  179   2 H    1     -33.440002   -7.430000   36.658001       1.0000      1.0079
  180   2 H    1     -33.160004   -8.820001   36.098002       1.0000      1.0079
  181   1 O    8     -27.810001   11.530000   36.438001       6.0000     15.9994
  182   2 H    1     -27.440002   10.980000   37.228000       1.0000      1.0079
  183   2 H    1     -28.770000   11.630001   36.748000       1.0000      1.0079
  184   1 O    8      21.740000   30.560001   37.778001       6.0000     15.9994
  185   2 H    1      22.730000   30.460003   37.628002       1.0000      1.0079
  186   2 H    1      21.250000   29.940002   37.208001       1.0000      1.0079
  187   1 O    8      20.150002   -2.510000   30.408001       6.0000     15.9994
  188   2 H    1      19.830000   -2.490000   31.378002       1.0000      1.0079
  189   2 H    1      20.300003   -1.560000   30.148001       1.0000      1.0079
  190   1 O    8      -1.320000  -22.040001   37.248002       6.0000     15.9994
  191   2 H    1      -1.490000  -22.940002   37.078000       1.0000      1.0079
  192   2 H    1      -0.690000  -21.690002   36.578001       1.0000      1.0079
  193   1 O    8     -18.670002    1.220000   39.308002       6.0000     15.9994
  194   2 H    1     -19.380001    1.070000   38.648002       1.0000      1.0079
  195   2 H    1     -17.980001    1.790000   38.858001       1.0000      1.0079
  196   1 O    8       1.220000   -7.910000   32.338001       6.0000     15.9994
  197   2 H    1       2.180000   -7.730001   32.438001       1.0000      1.0079
  198   2 H    1      17.630001   -7.000000   32.268001       1.0000      1.0079
  199   1 O    8       2.360000  -19.000000   30.028001       6.0000     15.9994
  200   2 H    1       2.140000  -18.080002   30.228001       1.0000      1.0079
  201   2 H    1       1.480000  -19.390001   29.788001       1.0000      1.0079
  202   1 O    8      15.980000    3.990000   36.308001       6.0000     15.9994
  203   2 H    1      16.820000    4.240000   36.778001       1.0000      1.0079
  204   2 H    1      -0.580000    3.930000   35.358001       1.0000      1.0079
  205   1 O    8     -10.240001  -25.310001   29.918001       6.0000     15.9994
  206   2 H    1     -10.240001  -25.420000   28.928001       1.0000      1.0079
  207   2 H    1     -11.160001  -25.110001   30.118001       1.0000      1.0079
  208   1 O    8      11.740000   -2.280000   36.558002       6.0000     15.9994
  209   2 H    1      11.540001   -2.400000   35.628002       1.0000      1.0079
  210   2 H    1      11.150000   -2.840000   37.028001       1.0000      1.0079
  211   1 O    8     -24.370001   32.160000   38.838001       6.0000     15.9994
  212   2 H    1     -24.680002   32.580002   39.638002       1.0000      1.0079
  213   2 H    1     -23.420000   32.050003   38.938001       1.0000      1.0079
  214   1 O    8       0.450000   23.700001   36.168001       6.0000     15.9994
  215   2 H    1       0.070000   23.960001   37.108001       1.0000      1.0079
  216   2 H    1      -0.190000   23.830002   35.458001       1.0000      1.0079
  217   1 O    8      10.980000   17.880001   33.558001       6.0000     15.9994
  218   2 H    1      11.680001   18.410000   33.138002       1.0000      1.0079
  219   2 H    1      10.960001   17.080000   32.908001       1.0000      1.0079
  220   1 O    8      24.120003   10.000000   38.218002       6.0000     15.9994
  221   2 H    1      23.500002    9.290000   38.588001       1.0000      1.0079
  222   2 H    1      24.460001   10.400001   39.028001       1.0000      1.0079
  223   1 O    8     -17.530001    9.860001   29.218001       6.0000     15.9994
  224   2 H    1     -18.430000   10.240001   29.428001       1.0000      1.0079
  225   2 H    1     -17.510000    8.930000   29.558001       1.0000      1.0079
  226   1 O    8      20.550001  -12.710000   39.588001       6.0000     15.9994
  227   2 H    1      20.660000  -12.130001   40.388002       1.0000      1.0079
  228   2 H    1      20.559999  -13.570002   40.008003       1.0000      1.0079
  229   1 O    8      -0.010000    5.260000   39.608001       6.0000     15.9994
  230   2 H    1       0.220000    4.480000   39.008003       1.0000      1.0079
  231   2 H    1      -0.850000    5.110001   40.138000       1.0000      1.0079
  232   1 O    8      -2.180000   22.400000   39.338001       6.0000     15.9994
  233   2 H    1      -1.960000   21.610001   38.818000       1.0000      1.0079
  234   2 H    1      -3.100000   22.280003   39.618001       1.0000      1.0079
  235   1 O    8      16.090000   12.190001   35.688001       6.0000     15.9994
  236   2 H    1      15.160000   12.020000   35.968002       1.0000      1.0079
  237   2 H    1      16.260000   13.110001   35.388001       1.0000      1.0079
  238   1 O    8     -13.270000   18.960001   34.278001       6.0000     15.9994
  239   2 H    1     -13.000001   19.840000   33.898001       1.0000      1.0079
  240   2 H    1     -12.750001   18.810001   35.148001       1.0000      1.0079
  241   1 O    8     -25.410002   29.450001   35.038001       6.0000     15.9994
  242   2 H    1     -26.060001   29.880001   34.428001       1.0000      1.0079
  243   2 H    1     -25.640001   30.140001   35.808001       1.0000      1.0079
  244   1 O    8      -2.710000    6.070001   30.538001       6.0000     15.9994
  245   2 H    1      -1.890000    6.660000   30.508001       1.0000      1.0079
  246   2 H    1      -2.490000    5.150001   30.768001       1.0000      1.0079
  247   1 O    8       0.440000   39.350002   34.288001       6.0000     15.9994
  248   2 H    1      -0.440000   39.050003   33.908000       1.0000      1.0079
  249   2 H    1       0.230000   40.170002   34.878001       1.0000      1.0079
  250   1 O    8      31.670000   16.100002   33.448000       6.0000     15.9994
  251   2 H    1      30.850000   15.670000   33.778001       1.0000      1.0079
  252   2 H    1      31.510002   15.930000   32.438001       1.0000      1.0079
  253   1 O    8     -20.470001    3.470000   36.708001       6.0000     15.9994
  254   2 H    1     -19.520000    3.630000   36.718001       1.0000      1.0079
  255   2 H    1     -20.550001    2.500000   36.698001       1.0000      1.0079
  256   1 O    8     -24.700001   22.570002   35.618000       6.0000     15.9994
  257   2 H    1     -24.720001   23.490002   35.258002       1.0000      1.0079
  258   2 H    1     -23.850002   22.580002   36.128002       1.0000      1.0079
  259   1 O    8      25.530003   14.010000   32.558001       6.0000     15.9994
  260   2 H    1      25.270002   14.460001   33.378001       1.0000      1.0079
  261   2 H    1      24.890001   13.280001   32.428001       1.0000      1.0079
  262   1 O    8      -5.330000    4.480000   29.408000       6.0000     15.9994
  263   2 H    1      -5.010000    3.520000   29.308001       1.0000      1.0079
  264   2 H    1      -6.250000    4.520000   29.758001       1.0000      1.0079
  265   1 O    8     -12.960000    7.480001   29.998000       6.0000     15.9994
  266   2 H    1     -13.420000    8.250000   30.388001       1.0000      1.0079
  267   2 H    1     -11.950001    7.400000   30.018001       1.0000      1.0079
  268   1 O    8      -6.130000   -1.590000   30.148001       6.0000     15.9994
  269   2 H    1      -6.510000   -1.350000   29.258001       1.0000      1.0079
  270   2 H    1      -6.450000   -0.880000   30.748000       1.0000      1.0079
  271   1 O    8      21.560001   -0.860000   33.528001       6.0000     15.9994
  272   2 H    1      30.660002  -15.870001   32.938001       1.0000      1.0079
  273   2 H    1      21.800001   -1.290000   34.378002       1.0000      1.0079
  274   1 O    8      -7.710000   -2.830000   37.848001       6.0000     15.9994
  275   2 H    1      -8.420001   -2.590000   37.128002       1.0000      1.0079
  276   2 H    1      -7.850000   -2.170000   38.668001       1.0000      1.0079
  277   1 O    8      12.350000   18.570002   36.928001       6.0000     15.9994
  278   2 H    1      12.450000   17.650002   37.338001       1.0000      1.0079
  279   2 H    1      11.510000   19.010002   37.198001       1.0000      1.0079
  280   1 O    8     -24.680002    5.170000   30.148001       6.0000     15.9994
  281   2 H    1     -24.540003    5.620000   31.028001       1.0000      1.0079
  282   2 H    1     -25.480001    4.600000   30.308001       1.0000      1.0079
  283   1 O    8      -7.780001   17.380001   38.558002       6.0000     15.9994
  284   2 H    1       9.540001   17.150000   37.698001       1.0000      1.0079
  285   2 H    1       9.550000   16.800001   39.248000       1.0000      1.0079
  286   1 O    8      -3.590000    0.590000   37.338001       6.0000     15.9994
  287   2 H    1      -4.360000    0.620000   37.938001       1.0000      1.0079
  288   2 H    1      -3.360000   -0.370000   37.208001       1.0000      1.0079
  289   1 O    8      28.670002   14.390000   36.248001       6.0000     15.9994
  290   2 H    1      28.010002   15.120001   35.998001       1.0000      1.0079
  291   2 H    1      28.100002   13.800001   36.798001       1.0000      1.0079
  292   1 O    8      19.960001   12.480001   33.898001       6.0000     15.9994
  293   2 H    1      19.870001   11.580001   33.488001       1.0000      1.0079
  294   2 H    1      19.090000   12.930001   33.578000       1.0000      1.0079
  295   1 O    8     -10.550001  -28.190002   30.828000       6.0000     15.9994
  296   2 H    1     -11.540001  -28.530003   30.578001       1.0000      1.0079
  297   2 H    1     -10.380001  -27.400002   30.358001       1.0000      1.0079
  298   1 O    8      -9.390000   30.990002   37.178001       6.0000     15.9994
  299   2 H    1      -8.730000   31.440001   37.828002       1.0000      1.0079
  300   2 H    1      -9.720000   31.750002   36.548002       1.0000      1.0079
  301   1 O    8     -35.400002   -4.850000   34.398001       6.0000     15.9994
  302   2 H    1     -36.270000   -5.330000   34.218001       1.0000      1.0079
  303   2 H    1     -18.890001   -4.010000   34.838001       1.0000      1.0079
  304   3 Pt  78       1.620000    0.630000   15.000000      10.0000    195.0840
  305   3 Pt  78       4.460000    0.770000   15.040005      10.0000    195.0840
  306   3 Pt  78       7.260000    0.760000   15.260002      10.0000    195.0840
  307   3 Pt  78      10.140000    0.540000   15.250004      10.0000    195.0840
  308   3 Pt  78      12.870001    0.670000   15.230000      10.0000    195.0840
  309   3 Pt  78      15.710001    0.720000   15.200001      10.0000    195.0840
  310   3 Pt  78       3.210000    3.170000   15.220001      10.0000    195.0840
  311   3 Pt  78       5.880000    3.180000   15.290001      10.0000    195.0840
  312   3 Pt  78       8.650001    3.120000   15.320004      10.0000    195.0840
  313   3 Pt  78      11.510000    2.960000   15.320004      10.0000    195.0840
  314   3 Pt  78      14.220000    3.080000   15.120003      10.0000    195.0840
  315   3 Pt  78       0.310000    3.230000   15.210003      10.0000    195.0840
  316   3 Pt  78       4.550000    5.650000   15.180004      10.0000    195.0840
  317   3 Pt  78       7.310000    5.550000   15.180004      10.0000    195.0840
  318   3 Pt  78      10.180000    5.430000   15.230000      10.0000    195.0840
  319   3 Pt  78      12.860001    5.480001   15.230000      10.0000    195.0840
  320   3 Pt  78      -1.100000    5.620000   15.170002      10.0000    195.0840
  321   3 Pt  78       1.790000    5.660000   15.140003      10.0000    195.0840
  322   3 Pt  78       5.990000    7.910000   15.190002      10.0000    195.0840
  323   3 Pt  78       8.770000    8.010000   15.130001      10.0000    195.0840
  324   3 Pt  78      11.620001    7.950000   15.210003      10.0000    195.0840
  325   3 Pt  78      -2.450000    8.100000   15.320004      10.0000    195.0840
  326   3 Pt  78       0.390000    8.080000   15.250004      10.0000    195.0840
  327   3 Pt  78       3.180000    8.110001   15.240002      10.0000    195.0840
  328   3 Pt  78       7.340000   10.430001   15.140003      10.0000    195.0840
  329   3 Pt  78      10.180000   10.430001   15.230000      10.0000    195.0840
  330   3 Pt  78      -3.750000   10.480001   15.140003      10.0000    195.0840
  331   3 Pt  78      -1.000000   10.440001   15.280003      10.0000    195.0840
  332   3 Pt  78       1.720000   10.440001   15.250004      10.0000    195.0840
  333   3 Pt  78       4.640000   10.550001   15.180004      10.0000    195.0840
  334   3 Pt  78       8.770000   12.850000   15.240002      10.0000    195.0840
  335   3 Pt  78      -5.320000   12.800001   15.050003      10.0000    195.0840
  336   3 Pt  78      -2.590000   12.980001   15.120003      10.0000    195.0840
  337   3 Pt  78       0.300000   12.830001   15.240002      10.0000    195.0840
  338   3 Pt  78       3.170000   12.880001   15.110004      10.0000    195.0840
  339   3 Pt  78       5.960000   12.980001   15.220001      10.0000    195.0840
  340   3 Pt  78       0.190000    1.630000   17.520000      10.0000    195.0840
  341   3 Pt  78       2.980000    1.540000   17.410004      10.0000    195.0840
  342   3 Pt  78       5.720000    1.660000   17.460003      10.0000    195.0840
  343   3 Pt  78       8.640000    1.480000   17.670002      10.0000    195.0840
  344   3 Pt  78      11.480000    1.460000   17.660000      10.0000    195.0840
  345   3 Pt  78      14.160000    1.480000   17.590000      10.0000    195.0840
  346   3 Pt  78       1.660000    3.940000   17.510002      10.0000    195.0840
  347   3 Pt  78       4.400000    4.100000   17.600002      10.0000    195.0840
  348   3 Pt  78       7.140000    3.980000   17.580002      10.0000    195.0840
  349   3 Pt  78      10.060000    3.920000   17.590000      10.0000    195.0840
  350   3 Pt  78      12.750001    3.890000   17.610004      10.0000    195.0840
  351   3 Pt  78      -1.210000    3.940000   17.560001      10.0000    195.0840
  352   3 Pt  78       2.980000    6.480000   17.560001      10.0000    195.0840
  353   3 Pt  78       5.770000    6.500000   17.550003      10.0000    195.0840
  354   3 Pt  78       8.590000    6.360001   17.470001      10.0000    195.0840
  355   3 Pt  78      11.460000    6.380000   17.490002      10.0000    195.0840
  356   3 Pt  78      -2.570000    6.430000   17.600002      10.0000    195.0840
  357   3 Pt  78       0.280000    6.340000   17.530003      10.0000    195.0840
  358   3 Pt  78       4.480000    8.870000   17.510002      10.0000    195.0840
  359   3 Pt  78       7.170000    8.850000   17.510002      10.0000    195.0840
  360   3 Pt  78      10.070001    8.830000   17.490002      10.0000    195.0840
  361   3 Pt  78      -4.010000    8.890000   17.510002      10.0000    195.0840
  362   3 Pt  78      -1.140000    8.830000   17.610004      10.0000    195.0840
  363   3 Pt  78       1.700000    8.870000   17.570000      10.0000    195.0840
  364   3 Pt  78       5.900001   11.260000   17.600002      10.0000    195.0840
  365   3 Pt  78       8.660001   11.350001   17.530003      10.0000    195.0840
  366   3 Pt  78      -5.420001   11.330000   17.590000      10.0000    195.0840
  367   3 Pt  78      -2.600000   11.340000   17.460003      10.0000    195.0840
  368   3 Pt  78       0.180000   11.290001   17.640003      10.0000    195.0840
  369   3 Pt  78       3.000000   11.290001   17.600002      10.0000    195.0840
  370   3 Pt  78       7.350000   13.640001   17.550003      10.0000    195.0840
  371   3 Pt  78      -6.640000   13.750001   17.420002      10.0000    195.0840
  372   3 Pt  78      -3.940000   13.780001   17.460003      10.0000    195.0840
  373   3 Pt  78      -1.240000   13.750001   17.510002      10.0000    195.0840
  374   3 Pt  78       1.550000   13.690001   17.530003      10.0000    195.0840
  375   3 Pt  78       4.480000   13.650000   17.530003      10.0000    195.0840
  376   3 Pt  78      -8.240001   14.570000   19.800003      10.0000    195.0840
  377   3 Pt  78      -5.430000   14.510001   19.740002      10.0000    195.0840
  378   3 Pt  78      -2.580000   14.430000   19.800003      10.0000    195.0840
  379   3 Pt  78       0.150000   14.400001   19.890003      10.0000    195.0840
  380   3 Pt  78       3.020000   14.440001   19.850002      10.0000    195.0840
  381   3 Pt  78       5.810000   14.570000   19.930004      10.0000    195.0840
  382   3 Pt  78       1.630000    2.400000   19.780003      10.0000    195.0840
  383   3 Pt  78       4.450000    2.440000   19.800003      10.0000    195.0840
  384   3 Pt  78       7.230001    2.280000   19.980000      10.0000    195.0840
  385   3 Pt  78      10.040001    2.180000   19.920002      10.0000    195.0840
  386   3 Pt  78      12.920000    2.310000   20.000004      10.0000    195.0840
  387   3 Pt  78      -1.240000    2.320000   19.860004      10.0000    195.0840
  388   3 Pt  78       3.080000    4.870000   19.880001      10.0000    195.0840
  389   3 Pt  78       5.780000    4.790000   19.890003      10.0000    195.0840
  390   3 Pt  78       8.720000    4.810000   19.940002      10.0000    195.0840
  391   3 Pt  78      11.370001    4.770000   19.940002      10.0000    195.0840
  392   3 Pt  78      -2.640000    4.780000   19.880001      10.0000    195.0840
  393   3 Pt  78       0.240000    4.780000   19.850002      10.0000    195.0840
  394   3 Pt  78       4.360000    7.300000   19.880001      10.0000    195.0840
  395   3 Pt  78       7.270000    7.190001   19.890003      10.0000    195.0840
  396   3 Pt  78       9.990001    7.340000   19.770000      10.0000    195.0840
  397   3 Pt  78      -4.060000    7.180000   19.850002      10.0000    195.0840
  398   3 Pt  78      -1.160000    7.090001   19.900002      10.0000    195.0840
  399   3 Pt  78       1.630000    7.190001   19.830002      10.0000    195.0840
  400   3 Pt  78       5.790000    9.730001   19.870003      10.0000    195.0840
  401   3 Pt  78       8.560000    9.680000   19.720001      10.0000    195.0840
  402   3 Pt  78      -5.410000    9.640000   19.690002      10.0000    195.0840
  403   3 Pt  78      -2.630000    9.600000   19.780003      10.0000    195.0840
  404   3 Pt  78       0.260000    9.600000   19.840000      10.0000    195.0840
  405   3 Pt  78       3.000000    9.670001   19.870003      10.0000    195.0840
  406   3 Pt  78       7.180000   12.140001   19.890003      10.0000    195.0840
  407   3 Pt  78      -6.910000   12.100000   19.810001      10.0000    195.0840
  408   3 Pt  78      -4.050000   12.060001   19.790005      10.0000    195.0840
  409   3 Pt  78      -1.230000   11.990000   19.850002      10.0000    195.0840
  410   3 Pt  78       1.540000   12.110001   19.960003      10.0000    195.0840
  411   3 Pt  78       4.290000   12.130001   19.850002      10.0000    195.0840
  412   3 Pt  78       1.620000    0.740000   22.068001      10.0000    195.0840
  413   3 Pt  78       4.490000    0.660000   21.948001      10.0000    195.0840
  414   3 Pt  78       7.160000    0.640000   22.188001      10.0000    195.0840
  415   3 Pt  78       9.900001    0.640000   22.248000      10.0000    195.0840
  416   3 Pt  78      12.750001    0.680000   22.328001      10.0000    195.0840
  417   3 Pt  78      15.550001    0.740000   22.208001      10.0000    195.0840
  418   3 Pt  78       3.060000    3.040000   22.128001      10.0000    195.0840
  419   3 Pt  78       5.810000    3.170000   22.278001      10.0000    195.0840
  420   3 Pt  78       8.570001    3.170000   22.218000      10.0000    195.0840
  421   3 Pt  78      11.330000    3.030000   22.238000      10.0000    195.0840
  422   3 Pt  78      14.220000    3.080000   22.258000      10.0000    195.0840
  423   3 Pt  78       0.180000    3.120000   22.178001      10.0000    195.0840
  424   3 Pt  78       4.390000    5.620000   22.198001      10.0000    195.0840
  425   3 Pt  78       7.140000    5.690000   22.208001      10.0000    195.0840
  426   3 Pt  78       9.900001    5.690000   22.188001      10.0000    195.0840
  427   3 Pt  78      12.750001    5.500000   22.128001      10.0000    195.0840
  428   3 Pt  78      -1.130000    5.510000   22.198001      10.0000    195.0840
  429   3 Pt  78       1.700000    5.470000   22.168001      10.0000    195.0840
  430   3 Pt  78       5.770000    8.080000   22.198001      10.0000    195.0840
  431   3 Pt  78       8.600000    8.080000   22.158001      10.0000    195.0840
  432   3 Pt  78      11.440001    8.010000   22.158001      10.0000    195.0840
  433   3 Pt  78      -2.640000    7.910000   22.168001      10.0000    195.0840
  434   3 Pt  78       0.210000    7.900000   22.188001      10.0000    195.0840
  435   3 Pt  78       2.940000    8.030001   22.208001      10.0000    195.0840
  436   3 Pt  78       7.180000   10.520000   22.098000      10.0000    195.0840
  437   3 Pt  78       9.970000   10.430001   22.018001      10.0000    195.0840
  438   3 Pt  78      -4.050000   10.410000   22.028001      10.0000    195.0840
  439   3 Pt  78      -1.220000   10.320001   22.218000      10.0000    195.0840
  440   3 Pt  78       1.460000   10.440001   22.278001      10.0000    195.0840
  441   3 Pt  78       4.330000   10.420000   22.178001      10.0000    195.0840
  442   3 Pt  78       8.560000   12.970000   22.088000      10.0000    195.0840
  443   3 Pt  78      -5.520000   12.860001   21.918001      10.0000    195.0840
  444   3 Pt  78      -2.620000   12.710000   22.198001      10.0000    195.0840
  445   3 Pt  78       0.040000   12.720001   22.218000      10.0000    195.0840
  446   3 Pt  78       2.830000   12.830001   22.338000      10.0000    195.0840
  447   3 Pt  78       5.780000   12.910000   22.258000      10.0000    195.0840
  448   3 Pt  78       0.110000    1.600000   24.428001      10.0000    195.0840
  449   3 Pt  78       2.990000    1.610000   24.338001      10.0000    195.0840
  450   3 Pt  78       5.750000    1.550000   24.518001      10.0000    195.0840
  451   3 Pt  78       8.500000    1.470000   24.548001      10.0000    195.0840
  452   3 Pt  78      11.140001    1.480000   24.518001      10.0000    195.0840
  453   3 Pt  78      13.980001    1.550000   24.608001      10.0000    195.0840
  454   3 Pt  78       1.550000    3.910000   24.448001      10.0000    195.0840
  455   3 Pt  78       4.220000    4.030000   24.648001      10.0000    195.0840
  456   3 Pt  78       7.130001    4.020000   24.558000      10.0000    195.0840
  457   3 Pt  78       9.840000    4.090000   24.608001      10.0000    195.0840
  458   3 Pt  78      12.540001    3.900000   24.558000      10.0000    195.0840
  459   3 Pt  78      -1.450000    3.890000   24.458001      10.0000    195.0840
  460   3 Pt  78       2.930000    6.360001   24.628001      10.0000    195.0840
  461   3 Pt  78       5.640000    6.510000   24.478001      10.0000    195.0840
  462   3 Pt  78       8.470000    6.480000   24.548001      10.0000    195.0840
  463   3 Pt  78      11.300000    6.390000   24.688001      10.0000    195.0840
  464   3 Pt  78      -2.690000    6.320000   24.378001      10.0000    195.0840
  465   3 Pt  78       0.150000    6.310000   24.408001      10.0000    195.0840
  466   3 Pt  78       4.230000    8.840000   24.558000      10.0000    195.0840
  467   3 Pt  78       7.030000    8.950001   24.398001      10.0000    195.0840
  468   3 Pt  78       9.890000    8.960000   24.388001      10.0000    195.0840
  469   3 Pt  78      -4.070000    8.780001   24.408001      10.0000    195.0840
  470   3 Pt  78      -1.270000    8.820001   24.408001      10.0000    195.0840
  471   3 Pt  78       1.440000    8.790001   24.608001      10.0000    195.0840
  472   3 Pt  78       5.670000   11.290001   24.428001      10.0000    195.0840
  473   3 Pt  78       8.580000   11.330000   24.458001      10.0000    195.0840
  474   3 Pt  78      -5.490000   11.340000   24.298001      10.0000    195.0840
  475   3 Pt  78      -2.670000   11.290001   24.418001      10.0000    195.0840
  476   3 Pt  78       0.130000   11.140001   24.658001      10.0000    195.0840
  477   3 Pt  78       2.850000   11.200000   24.498001      10.0000    195.0840
  478   3 Pt  78       7.140000   13.740001   24.408001      10.0000    195.0840
  479   3 Pt  78      -6.950001   13.790001   24.338001      10.0000    195.0840
  480   3 Pt  78      -4.190001   13.770000   24.418001      10.0000    195.0840
  481   3 Pt  78      -1.360000   13.700001   24.558000      10.0000    195.0840
  482   3 Pt  78       1.430000   13.590001   24.508001      10.0000    195.0840
  483   3 Pt  78       4.310000   13.750001   24.568001      10.0000    195.0840
  484   3 Pt  78      -8.520000   14.640001   26.648001      10.0000    195.0840
  485   3 Pt  78      -5.680000   14.680000   26.768001      10.0000    195.0840
  486   3 Pt  78      -2.900000   14.590001   26.868000      10.0000    195.0840
  487   3 Pt  78      -0.210000   14.640001   26.988001      10.0000    195.0840
  488   3 Pt  78       2.730000   14.480001   26.828000      10.0000    195.0840
  489   3 Pt  78       5.550000   14.460001   26.978001      10.0000    195.0840
  490   3 Pt  78       1.350000    2.390000   26.778001      10.0000    195.0840
  491   3 Pt  78       4.150000    2.480000   26.878001      10.0000    195.0840
  492   3 Pt  78       6.940000    2.420000   26.818001      10.0000    195.0840
  493   3 Pt  78       9.770000    2.450000   26.918001      10.0000    195.0840
  494   3 Pt  78      12.570001    2.310000   26.858001      10.0000    195.0840
  495   3 Pt  78      -1.460000    2.350000   26.878001      10.0000    195.0840
  496   3 Pt  78       2.760000    4.790000   27.108001      10.0000    195.0840
  497   3 Pt  78       5.510000    5.020000   26.998000      10.0000    195.0840
  498   3 Pt  78       8.280001    4.880000   26.918001      10.0000    195.0840
  499   3 Pt  78      11.190001    4.680000   27.088001      10.0000    195.0840
  500   3 Pt  78      -2.880000    4.700000   26.738000      10.0000    195.0840
  501   3 Pt  78      -0.120000    4.780000   26.798001      10.0000    195.0840
  502   3 Pt  78       4.030000    7.270000   27.088001      10.0000    195.0840
  503   3 Pt  78       6.870000    7.290000   26.818001      10.0000    195.0840
  504   3 Pt  78       9.720000    7.180000   26.868000      10.0000    195.0840
  505   3 Pt  78      -4.180000    7.180000   26.948001      10.0000    195.0840
[...]
 -                                                                             -
 -                                DBCSR STATISTICS                             -
 -                                                                             -
 -------------------------------------------------------------------------------
 COUNTER                                    TOTAL       BLAS       SMM       ACC
 flops     5 x    32 x     5           4046368000       0.0%    100.0%      0.0%
 flops    13 x    32 x     5           5147567360       0.0%    100.0%      0.0%
 flops     5 x    32 x    13           5147567360       0.0%    100.0%      0.0%
 flops    13 x    32 x    13           6038680960       0.0%    100.0%      0.0%
 flops     5 x     5 x    96           8460748800       0.0%    100.0%      0.0%
 flops    13 x    32 x    20           8575324160       0.0%    100.0%      0.0%
 flops    20 x    32 x    13           8575324160       0.0%    100.0%      0.0%
 flops     5 x    32 x    20           9133939200       0.0%    100.0%      0.0%
 flops    20 x    32 x     5           9133939200       0.0%    100.0%      0.0%
 flops     5 x    13 x    96          10707041280       0.0%    100.0%      0.0%
 flops    13 x     5 x    96          10713480960       0.0%    100.0%      0.0%
 flops    13 x    13 x    96          12705273984       0.0%    100.0%      0.0%
 flops    20 x    13 x    96          17837913600       0.0%    100.0%      0.0%
 flops    13 x    20 x    96          17846499840       0.0%    100.0%      0.0%
 flops    20 x     5 x    96          18983846400       0.0%    100.0%      0.0%
 flops     5 x    20 x    96          19025126400       0.0%    100.0%      0.0%
 flops    20 x    32 x    20          74052403200       0.0%    100.0%      0.0%
 flops     5 x     5 x   128          78966988800       0.0%    100.0%      0.0%
 flops     5 x    13 x   128          99932385280       0.0%    100.0%      0.0%
 flops    13 x     5 x   128          99992488960       0.0%    100.0%      0.0%
 flops    13 x    13 x   128         118582557184       0.0%    100.0%      0.0%
 flops    20 x    20 x    96         154790092800       0.0%    100.0%      0.0%
 flops    20 x    13 x   128         166487193600       0.0%    100.0%      0.0%
 flops    13 x    20 x   128         166567331840       0.0%    100.0%      0.0%
 flops    20 x     5 x   128         177182566400       0.0%    100.0%      0.0%
 flops     5 x    20 x   128         177567846400       0.0%    100.0%      0.0%
 flops    20 x    20 x   128        1444707532800       0.0%    100.0%      0.0%
 flops inhomo. stacks                           0       0.0%      0.0%      0.0%
 flops total                         2.930908E+12       0.0%    100.0%      0.0%
 flops max/rank                     25.294750E+09       0.0%    100.0%      0.0%
 matmuls inhomo. stacks                         0       0.0%      0.0%      0.0%
 matmuls total                           80984310       0.0%    100.0%      0.0%
 number of processed stacks                812678       0.0%    100.0%      0.0%
 average stack size                                     0.0      99.7       0.0
 marketing flops                     6.039821E+12
 -------------------------------------------------------------------------------
 # multiplications                             44
 max memory usage/rank               1.612108E+09
 # max total images/rank                        2
 # max 3D layers                                1
 # MPI messages exchanged                  163328
 MPI messages size (bytes):
  total size                       104.409072E+09
  min size                         288.768000E+03
  max size                           2.186888E+06
  average size                     639.260062E+03
 MPI breakdown and total messages size (bytes):
             size <=      128                   0                        0
       128 < size <=     8192                   0                        0
      8192 < size <=    32768                   0                        0
     32768 < size <=   131072                   0                        0
    131072 < size <=  4194304              163328             104409073288
   4194304 < size <= 16777216                   0                        0
  16777216 < size                               0                        0
 -------------------------------------------------------------------------------

 *** WARNING in dbcsr_mm.F:290 :: Using a non-square number of MPI ranks ***
 *** might lead to poor performance. Used ranks: 128 Suggested: 121 256  ***

 -------------------------------------------------------------------------------
 -                                                                             -
 -                      DBCSR MESSAGE PASSING PERFORMANCE                      -
 -                                                                             -
 -------------------------------------------------------------------------------
 ROUTINE             CALLS      AVE VOLUME [Bytes]
 MP_Bcast               28                     12.
 MP_Allreduce          375                     11.
 MP_Alltoall          1225                 589131.
 MP_ISend             2816                 301578.
 MP_IRecv             2816                 295131.
 -------------------------------------------------------------------------------

 -------------------------------------------------------------------------------
 -                                                                             -
 -                                DBM STATISTICS                               -
 -                                                                             -
 -------------------------------------------------------------------------------
    M  x    N  x    K                                          COUNT     PERCENT
 -------------------------------------------------------------------------------

 -------------------------------------------------------------------------------
 -                                                                             -
 -                                GRID STATISTICS                              -
 -                                                                             -
 -------------------------------------------------------------------------------
 LP    KERNEL             BACKEND                              COUNT     PERCENT
 4     collocate general  REF                               17052672      22.09%
 4     integrate general  REF                               16929236      21.93%
 3     collocate general  REF                               11868360      15.37%
 3     integrate general  REF                               11813152      15.30%
 2     collocate general  REF                                9549624      12.37%
 2     integrate general  REF                                9322252      12.07%
 5     integrate general  REF                                 406016       0.53%
 0     collocate general  REF                                 132864       0.17%
 0     integrate general  REF                                  66432       0.09%
 1     integrate general  REF                                  66432       0.09%
 -------------------------------------------------------------------------------

 MEMORY| Estimated peak process memory [MiB]                                1802

 -------------------------------------------------------------------------------
 ----                             MULTIGRID INFO                            ----
 -------------------------------------------------------------------------------
 count for grid        1:        1096740          cutoff [a.u.]          200.00
 count for grid        2:        1091955          cutoff [a.u.]           66.67
 count for grid        3:         717042          cutoff [a.u.]           22.22
 count for grid        4:         555545          cutoff [a.u.]            7.41
 total gridlevel count  :        3461282

 -------------------------------------------------------------------------------
 -                                                                             -
 -                         MESSAGE PASSING PERFORMANCE                         -
 -                                                                             -
 -------------------------------------------------------------------------------

 ROUTINE             CALLS      AVE VOLUME [Bytes]
 MP_Group                4
 MP_Bcast             2222                 304257.
 MP_Allreduce         3503                  31135.
 MP_Sync                90
 MP_Alltoall          2542               16348394.
 MP_SendRecv           508                   6135.
 MP_ISendRecv        21336                  61740.
 MP_Wait             37776
 MP_comm_split          43
 MP_ISend            15496                 256076.
 MP_IRecv            15496                 256076.
 MP_Recv               183                1700608.
 MP_Write_All            3                1797408.
 -------------------------------------------------------------------------------


 -------------------------------------------------------------------------------
 -                                                                             -
 -                           R E F E R E N C E S                               -
 -                                                                             -
 -------------------------------------------------------------------------------
 
 CP2K version 2022.1, the CP2K developers group (2022).
 CP2K is freely available from https://www.cp2k.org/ .

 Kuehne,Thomas D.; Iannuzzi,Marcella; Del Ben,Mauro;
 Rybkin,Vladimir V.; Seewald,Patrick; Stein,Frederick; Laino,Teodoro;
 Khaliullin,Rustam Z.; Schuett,Ole; Schiffmann,Florian; Golze,Dorothea;
 Wilhelm,Jan; Chulkov,Sergey; Bani-Hashemian,Mohammad Hossein;
 Weber,Valery; Borstnik,Urban; Taillefumier,Mathieu;
 Jakobovits,Alice Shoshana; Lazzaro,Alfio; Pabst,Hans; Mueller,Tiziano;
 Schade,Robert; Guidon,Manuel; Andermatt,Samuel; Holmberg,Nico;
 Schenter,Gregory K.; Hehn,Anna; Bussy,Augustin; Belleflamme,Fabian;
 Tabacchi,Gloria; Gloess,Andreas; Lass,Michael; Bethune,Iain;
 Mundy,Christopher J.; Plessl,Christian; Watkins,Matt;
 VandeVondele,Joost; Krack,Matthias; Hutter,Juerg. 
 The Journal of Chemical Physics, 152 (19), (2020). 
 CP2K: An electronic structure and molecular dynamics software package -
 Quickstep: Efficient and accurate electronic structure calculations.
 https://doi.org/10.1063/5.0007045

 Goerigk, Lars; Hansen, Andreas; Bauer, Christoph; Ehrlich, Stephan;
 Najibi, Asim; Grimme, Stefan. , 19 (48), (2017). 
 A look at the density functional theory zoo with the advanced GMTKN55 database
 for general main group thermochemistry, kinetics and noncovalent interactions.
 https://doi.org/10.1039/C7CP04913G

 Bani-Hashemian, MH; Bruck, S; Luisier, M; VandeVondele, J. 
 JOURNAL OF CHEMICAL PHYSICS, 144 (4), 044113 (2016). 
 A generalized Poisson solver for first-principles device simulations.
 https://doi.org/10.1063/1.4940796

 Schuett, Ole; Messmer, Peter; Hutter, Juerg; VandeVondele, Joost. 
 Electronic Structure Calculations on Graphics Processing Units, John
 Wiley & Sons, Ltd, 173-190 (2016). 
 GPU-Accelerated Sparse Matrix-Matrix Multiplication for
 Linear Scaling Density Functional Theory.
 https://doi.org/10.1002/9781118670712.ch8

 Heinecke, A; Henry, G; Hutchinson, M; Pabst, H. 
 Proceedings of Intl. Supercomputing Conference, 981-991 (2016). 
 LIBXSMM: Accelerating Small Matrix Multiplications
 by Runtime Code Generation.
 https://doi.org/10.1109/SC.2016.83

 Borstnik, U; VandeVondele, J; Weber, V; Hutter, J. 
 PARALLEL COMPUTING, 40 (5-6), 47-58 (2014). 
 Sparse matrix multiplication: The distributed block-compressed sparse
 row library.
 https://doi.org/10.1016/j.parco.2014.03.012

 Hutter, J; Iannuzzi, M; Schiffmann, F; VandeVondele, J. 
 WIREs Comput Mol Sci., 4 (1), 15-25 (2014). 
 CP2K: atomistic simulations of condensed matter systems.
 https://doi.org/10.1002/wcms.1159

 Marek, A; Blum, V; Johanni, R; Havu, V; Lang, B; Auckenthaler, T;
 Heinecke, A; Bungartz, H; Lederer, H. 
 Journal of Physics: Condensed Matter, 26 (21), (2014). 
 The ELPA library: scalable parallel eigenvalue solutions for
 electronic structure
 theory and computational science.
 https://doi.org/10.1088/0953-8984/26/21/213201

 Grimme, S; Ehrlich, S; Goerigk, L. 
 JOURNAL OF COMPUTATIONAL CHEMISTRY, 32, 1456 (2011). 
 Effect of the damping function in dispersion corrected density functional theory.
 https://doi.org/10.1002/jcc.21759

 Grimme, S; Antony, J; Ehrlich, S; Krieg, H. 
 JOURNAL OF CHEMICAL PHYSICS, 132 (15), 154104 (2010). 
 A consistent and accurate ab initio parametrization of density
 functional dispersion correction (DFT-D) for the 94 elements H-Pu.
 https://doi.org/10.1063/1.3382344

 VandeVondele, J; Hutter, J. 
 JOURNAL OF CHEMICAL PHYSICS, 127 (11), 114105 (2007). 
 Gaussian basis sets for accurate calculations on molecular systems in
 gas and condensed phases.
 https://doi.org/10.1063/1.2770708

 Krack, M. 
 THEORETICAL CHEMISTRY ACCOUNTS, 114 (1-3), 145-152 (2005). 
 Pseudopotentials for H to Kr optimized for gradient-corrected
 exchange-correlation functionals.
 https://doi.org/10.1007/s00214-005-0655-y

 VandeVondele, J; Krack, M; Mohamed, F; Parrinello, M; Chassaing, T;
 Hutter, J. COMPUTER PHYSICS COMMUNICATIONS, 167 (2), 103-128 (2005). 
 QUICKSTEP: Fast and accurate density functional calculations using a
 mixed Gaussian and plane waves approach.
 https://doi.org/10.1016/j.cpc.2004.12.014

 Frigo, M; Johnson, SG. 
 PROCEEDINGS OF THE IEEE, 93 (2), 216-231 (2005). 
 The design and implementation of FFTW3.
 https://doi.org/10.1109/JPROC.2004.840301

 Hartwigsen, C; Goedecker, S; Hutter, J. 
 PHYSICAL REVIEW B, 58 (7), 3641-3662 (1998). 
 Relativistic separable dual-space Gaussian pseudopotentials from H to Rn.
 https://doi.org/10.1103/PhysRevB.58.3641

 Lippert, G; Hutter, J; Parrinello, M. 
 MOLECULAR PHYSICS, 92 (3), 477-487 (1997). 
 A hybrid Gaussian and plane wave density functional scheme.
 https://doi.org/10.1080/002689797170220

 Perdew, JP; Burke, K; Ernzerhof, M. 
 PHYSICAL REVIEW LETTERS, 77 (18), 3865-3868 (1996). 
 Generalized gradient approximation made simple.
 https://doi.org/10.1103/PhysRevLett.77.3865

 Goedecker, S; Teter, M; Hutter, J. 
 PHYSICAL REVIEW B, 54 (3), 1703-1710 (1996). 
 Separable dual-space Gaussian pseudopotentials.
 https://doi.org/10.1103/PhysRevB.54.1703


 -------------------------------------------------------------------------------
 -                                                                             -
 -                                T I M I N G                                  -
 -                                                                             -
 -------------------------------------------------------------------------------
 SUBROUTINE                       CALLS  ASD         SELF TIME        TOTAL TIME
                                MAXIMUM       AVERAGE  MAXIMUM  AVERAGE  MAXIMUM
 CP2K                                 1  1.0    0.027    0.037  298.234  298.236
 qs_forces                            1  2.0    0.002    0.002  297.754  297.756
 qs_energies                          1  3.0    0.000    0.001  291.687  291.693
 scf_env_do_scf                       1  4.0    0.000    0.000  282.121  282.256
 scf_env_do_scf_inner_loop           41  5.0    0.002    0.006  282.118  282.253
 rebuild_ks_matrix                   42  6.9    0.000    0.000  150.932  150.977
 qs_ks_build_kohn_sham_matrix        42  7.9    0.007    0.008  150.932  150.976
 qs_ks_update_qs_env                 41  6.0    0.000    0.000  146.908  146.951
 pw_transfer                       2188 12.2    0.158    0.213   94.646   96.462
 fft_wrap_pw1pw2                   2188 13.2    0.021    0.025   94.487   96.292
 fft_wrap_pw1pw2_200               1936 14.4    6.427    7.538   93.201   94.982
 qs_scf_new_mos                      41  6.0    0.002    0.006   81.769   81.918
 pw_poisson_solve                    42  8.9    0.004    0.011   81.428   81.472
 fft3d_ps                          2188 15.2   27.489   30.472   75.917   78.593
 implicit_poisson_solver_mixed_      42  9.9    1.737    2.135   77.115   77.184
 eigensolver                         41  7.0    0.003    0.005   76.924   77.147
 cp_fm_diag_elpa                     43  8.0    0.001    0.001   54.261   54.403
 derive_fft                         252 12.1    0.016    0.018   53.929   54.077
 cp_fm_redistribute_end              43  9.0    7.240   53.796    7.325   53.841
 cp_fm_diag_elpa_base                43  9.0   45.818   52.599   46.259   53.083
 mp_alltoall_z22v                  2188 17.2   40.381   50.187   40.381   50.187
 qs_rho_update_rho_low               42  6.0    0.000    0.000   47.355   47.370
 calculate_rho_elec                  42  7.0    0.081    0.100   47.355   47.369
 sum_up_and_integrate                42  8.9    0.228    0.288   46.469   46.516
 integrate_v_rspace                  42  9.9    0.001    0.003   46.240   46.349
 apply_P_operator                   210 11.1    1.119    1.271   46.185   46.318
 grid_collocate_task_list            42  8.0   30.580   37.236   30.580   37.236
 grid_integrate_task_list            42 10.9   28.371   33.740   28.371   33.740
 x_to_yz                           1261 16.4    5.363    6.907   30.588   31.980
 cp_fm_triangular_multiply          123  8.0   24.156   24.456   24.156   24.456
 rs_pw_transfer                     340 10.4    0.004    0.005   20.813   24.050
 yz_to_x                            675 16.4    1.850    2.180   16.847   23.008
 qs_vxc_create                       42  8.9    0.001    0.002   20.611   20.876
 xc_vxc_pw_create                    42  9.9    0.357    0.444   20.610   20.875
 density_rs2pw                       42  8.0    0.003    0.003   15.716   19.098
 xc_pw_derive                       252 11.9    0.004    0.005   14.499   16.045
 apply_poisson_operator_fft          42 10.9    0.001    0.001   13.557   13.786
 apply_inv_laplace_operator_fft     128 11.6    0.324    0.357   12.554   13.013
 rs_pw_transfer_RS2PW_200            44  9.9    2.871    3.248    9.393   12.619
 mp_waitany                       15496 12.4    9.261   12.502    9.261   12.502
 potential_pw2rs                     42 10.9    0.012    0.014   11.914   12.016
 xc_pw_divergence                    42 10.9    0.002    0.002    9.825   11.000
 xc_rho_set_and_dset_create          42 10.9    0.209    0.246   10.039   10.932
 mp_alltoall_d11v                   610 10.3    7.374   10.210    7.374   10.210
 ps_implicit_compute_error_fft       84 10.9    0.529    0.646    9.346   10.017
 ps_implicit_compute_veps            42 10.9    0.244    0.292    9.111    9.261
 pw_scatter_p                      1387 15.4    7.735    9.130    7.735    9.130
 rs_gather_matrices                  42 10.9    0.050    0.062    5.943    8.743
 rs_pw_transfer_PW2RS_200            44 12.7    3.307    3.497    6.931    7.081
 gspace_mixing                       40  6.0    0.077    0.096    6.905    6.906
 pw_derive                         1008 13.1    6.402    6.897    6.402    6.897
 -------------------------------------------------------------------------------

 The number of warnings for this run is : 1
 
 -------------------------------------------------------------------------------
  **** **** ******  **  PROGRAM ENDED AT                 2023-12-02 16:22:00.545
 ***** ** ***  *** **   PROGRAM RAN ON                                     cu306
 **    ****   ******    PROGRAM RAN BY                                     jxzhu
 ***** **    ** ** **   PROGRAM PROCESS ID                                 40972
  **** **  *******  **  PROGRAM STOPPED IN /public/home/jxzhu/tmp_calc/cc0e0554e
                                           034f4b706d93bcc2d13746d9c39381e/calc/
                                           001800.000/search_lo.000003
