 DBCSR| CPU Multiplication driver                                           XSMM
 DBCSR| Multrec recursion limit                                              512
 DBCSR| Multiplication stack size                                           1000
 DBCSR| Maximum elements for images                                    UNLIMITED
 DBCSR| Multiplicative factor virtual images                                   1
 DBCSR| Use multiplication densification                                       T
 DBCSR| Multiplication size stacks                                             3
 DBCSR| Use memory pool for CPU allocation                                     F
 DBCSR| Number of 3D layers                                               SINGLE
 DBCSR| Use MPI memory allocation                                              F
 DBCSR| Use RMA algorithm                                                      F
 DBCSR| Use Communication thread                                               T
 DBCSR| Communication thread load                                             87
 DBCSR| MPI: My node id                                                        0
 DBCSR| MPI: Number of nodes                                                 128
 DBCSR| OMP: Current number of threads                                         1
 DBCSR| OMP: Max number of threads                                             1
 DBCSR| Split modifier for TAS multiplication algorithm                  1.0E+00


  **** **** ******  **  PROGRAM STARTED AT               2023-12-02 03:19:04.669
 ***** ** ***  *** **   PROGRAM STARTED ON                                 cu001
 **    ****   ******    PROGRAM STARTED BY                                 jxzhu
 ***** **    ** ** **   PROGRAM PROCESS ID                                 36066
  **** **  *******  **  PROGRAM STARTED IN /public/home/jxzhu/tmp_calc/bb0b18d0e
                                           001213d4c567376841c311577b219c3/calc/
                                           000500.000/task_hi.000001

 CP2K| version string:                                       CP2K version 2022.1
 CP2K| source code revision number:                                  git:2caeb6f
 CP2K| cp2kflags: omp libint fftw3 libxc elpa parallel mpi3 scalapack cosma xsmm
 CP2K|             plumed2 spglib mkl sirius libvori libbqb
 CP2K| is freely available from                            https://www.cp2k.org/
 CP2K| Program compiled at                           Mon Jul 3 17:37:06 CST 2023
 CP2K| Program compiled on                                                 mu003
 CP2K| Program compiled for                                                local
 CP2K| Data directory path                             /public/home/jxzhu/basis/
 CP2K| Input file name                                                 input.inp
 
 GLOBAL| Force Environment number                                              1
 GLOBAL| Basis set file name                                        BASIS_MOLOPT
 GLOBAL| Potential file name                                      GTH_POTENTIALS
 GLOBAL| MM Potential file name                                     MM_POTENTIAL
 GLOBAL| Coordinate file name                                          coord.xyz
 GLOBAL| Method name                                                        CP2K
 GLOBAL| Project name                                                       cp2k
 GLOBAL| Run type                                                   ENERGY_FORCE
 GLOBAL| FFT library                                                       FFTW3
 GLOBAL| Diagonalization library                                            ELPA
 GLOBAL| Minimum number of eigenvectors for ELPA usage                        16
 GLOBAL| Orthonormality check for eigenvectors                          DISABLED
 GLOBAL| Matrix multiplication library                                     COSMA
 GLOBAL| All-to-all communication in single precision                          F
 GLOBAL| FFTs using library dependent lengths                                  T
 GLOBAL| Grid backend                                                       AUTO
 GLOBAL| Global print level                                               MEDIUM
 GLOBAL| MPI I/O enabled                                                       T
 GLOBAL| Total number of message passing processes                           128
 GLOBAL| Number of threads for this process                                    1
 GLOBAL| This output is from process                                           0
 GLOBAL| Stack size for threads created by OpenMP (OMP_STACKSIZE)        default
 GLOBAL| CPU model name                 Intel(R) Xeon(R) Gold 6338 CPU @ 2.00GHz
 GLOBAL| CPUID                                                              1003

 MEMORY| system memory details [Kb]
 MEMORY|                        rank 0           min           max       average
 MEMORY| MemTotal            263619172     263619172     263619172     263619172
 MEMORY| MemFree             218729552     216258688     218730792     217494743
 MEMORY| Buffers                    20            20            36            28
 MEMORY| Cached                2078908        871956       2078908       1475432
 MEMORY| Slab                  1421376       1414648       1421376       1418012
 MEMORY| SReclaimable           245760        231444        245760        238602
 MEMORY| MemLikelyFree       221054240     217362124     221055480     219208805


 *** Fundamental physical constants (SI units) ***

 *** Literature: B. J. Mohr and B. N. Taylor,
 ***             CODATA recommended values of the fundamental physical
 ***             constants: 2006, Web Version 5.1
 ***             http://physics.nist.gov/constants

 Speed of light in vacuum [m/s]                             2.99792458000000E+08
 Magnetic constant or permeability of vacuum [N/A**2]       1.25663706143592E-06
 Electric constant or permittivity of vacuum [F/m]          8.85418781762039E-12
 Planck constant (h) [J*s]                                  6.62606896000000E-34
 Planck constant (h-bar) [J*s]                              1.05457162825177E-34
 Elementary charge [C]                                      1.60217648700000E-19
 Electron mass [kg]                                         9.10938215000000E-31
 Electron g factor [ ]                                     -2.00231930436220E+00
 Proton mass [kg]                                           1.67262163700000E-27
 Fine-structure constant                                    7.29735253760000E-03
 Rydberg constant [1/m]                                     1.09737315685270E+07
 Avogadro constant [1/mol]                                  6.02214179000000E+23
 Boltzmann constant [J/K]                                   1.38065040000000E-23
 Atomic mass unit [kg]                                      1.66053878200000E-27
 Bohr radius [m]                                            5.29177208590000E-11

 *** Conversion factors ***

 [u] -> [a.u.]                                              1.82288848426455E+03
 [Angstrom] -> [Bohr] = [a.u.]                              1.88972613288564E+00
 [a.u.] = [Bohr] -> [Angstrom]                              5.29177208590000E-01
 [a.u.] -> [s]                                              2.41888432650478E-17
 [a.u.] -> [fs]                                             2.41888432650478E-02
 [a.u.] -> [J]                                              4.35974393937059E-18
 [a.u.] -> [N]                                              8.23872205491840E-08
 [a.u.] -> [K]                                              3.15774647902944E+05
 [a.u.] -> [kJ/mol]                                         2.62549961709828E+03
 [a.u.] -> [kcal/mol]                                       6.27509468713739E+02
 [a.u.] -> [Pa]                                             2.94210107994716E+13
 [a.u.] -> [bar]                                            2.94210107994716E+08
 [a.u.] -> [atm]                                            2.90362800883016E+08
 [a.u.] -> [eV]                                             2.72113838565563E+01
 [a.u.] -> [Hz]                                             6.57968392072181E+15
 [a.u.] -> [1/cm] (wave numbers)                            2.19474631370540E+05
 [a.u./Bohr**2] -> [1/cm]                                   5.14048714338585E+03
 

 CELL_TOP| Volume [angstrom^3]:                                     17614.982639
 CELL_TOP| Vector a [angstrom    16.869     0.000     0.000   |a| =    16.869000
 CELL_TOP| Vector b [angstrom    -8.434    14.609     0.000   |b| =    16.869015
 CELL_TOP| Vector c [angstrom     0.000     0.000    71.478   |c| =    71.478000
 CELL_TOP| Angle (b,c), alpha [degree]:                                90.000000
 CELL_TOP| Angle (a,c), beta  [degree]:                                90.000000
 CELL_TOP| Angle (a,b), gamma [degree]:                               119.999970
 CELL_TOP| Numerically orthorhombic:                                          NO
 
 GENERATE|  Preliminary Number of Bonds generated:                             0
 GENERATE|  Achieved consistency in connectivity generation.

 CELL| Volume [angstrom^3]:                                         17614.982639
 CELL| Vector a [angstrom]:      16.869     0.000     0.000   |a| =    16.869000
 CELL| Vector b [angstrom]:      -8.434    14.609     0.000   |b| =    16.869015
 CELL| Vector c [angstrom]:       0.000     0.000    71.478   |c| =    71.478000
 CELL| Angle (b,c), alpha [degree]:                                    90.000000
 CELL| Angle (a,c), beta  [degree]:                                    90.000000
 CELL| Angle (a,b), gamma [degree]:                                   119.999970
 CELL| Numerically orthorhombic:                                              NO

 CELL_REF| Volume [angstrom^3]:                                     17614.982639
 CELL_REF| Vector a [angstrom    16.869     0.000     0.000   |a| =    16.869000
 CELL_REF| Vector b [angstrom    -8.434    14.609     0.000   |b| =    16.869015
 CELL_REF| Vector c [angstrom     0.000     0.000    71.478   |c| =    71.478000
 CELL_REF| Angle (b,c), alpha [degree]:                                90.000000
 CELL_REF| Angle (a,c), beta  [degree]:                                90.000000
 CELL_REF| Angle (a,b), gamma [degree]:                               119.999970
 CELL_REF| Numerically orthorhombic:                                          NO

 *******************************************************************************
 *******************************************************************************
 **                                                                           **
 **     #####                         ##              ##                      **
 **    ##   ##            ##          ##              ##                      **
 **   ##     ##                       ##            ######                    **
 **   ##     ##  ##   ##  ##   #####  ##  ##   ####   ##    #####    #####    **
 **   ##     ##  ##   ##  ##  ##      ## ##   ##      ##   ##   ##  ##   ##   **
 **   ##  ## ##  ##   ##  ##  ##      ####     ###    ##   ######   ######    **
 **    ##  ###   ##   ##  ##  ##      ## ##      ##   ##   ##       ##        **
 **     #######   #####   ##   #####  ##  ##  ####    ##    #####   ##        **
 **           ##                                                    ##        **
 **                                                                           **
 **                                                ... make the atoms dance   **
 **                                                                           **
 **            Copyright (C) by CP2K developers group (2000-2022)             **
 **                      J. Chem. Phys. 152, 194103 (2020)                    **
 **                                                                           **
 *******************************************************************************

 DFT| Spin restricted Kohn-Sham (RKS) calculation                            RKS
 DFT| Multiplicity                                                             1
 DFT| Number of spin states                                                    1
 DFT| Charge                                                                   0
 DFT| Self-interaction correction (SIC)                                       NO
 DFT| Cutoffs: density                                              1.000000E-10
 DFT|          gradient                                             1.000000E-10
 DFT|          tau                                                  1.000000E-10
 DFT|          cutoff_smoothing_range                               0.000000E+00
 DFT| XC density smoothing                                                  NONE
 DFT| XC derivatives                                                          PW

 FUNCTIONAL| PBE:
 FUNCTIONAL| J.P.Perdew, K.Burke, M.Ernzerhof, Phys. Rev. Letter, vol. 77, n 18,
 FUNCTIONAL|  pp. 3865-3868, (1996){spin unpolarized}                           

 vdW POTENTIAL|                                                   Pair Potential
 vdW POTENTIAL|          DFT-D3 (Version 3.1)
 vdW POTENTIAL|          Potential Form: S. Grimme et al, JCP 132: 154104 (2010)
 vdW POTENTIAL|          Zero Damping
 vdW POTENTIAL|          Cutoff Radius [Bohr]:                             20.00
 vdW POTENTIAL|          s6 Scaling Factor:                               1.0000
 vdW POTENTIAL|          sr6 Scaling Factor:                              1.2170
 vdW POTENTIAL|          s8 Scaling Factor:                               0.7220
 vdW POTENTIAL|          Cutoff for CN calculation:                   0.1000E-05

 QS| Method:                                                                 GPW
 QS| Density plane wave grid type                        NON-SPHERICAL FULLSPACE
 QS| Number of grid levels:                                                    4
 QS| Density cutoff [a.u.]:                                                200.0
 QS| Multi grid cutoff [a.u.]: 1) grid level                               200.0
 QS|                           2) grid level                                66.7
 QS|                           3) grid level                                22.2
 QS|                           4) grid level                                 7.4
 QS| Grid level progression factor:                                          3.0
 QS| Relative density cutoff [a.u.]:                                        20.0
 QS| Interaction thresholds: eps_pgf_orb:                                3.2E-07
 QS|                         eps_filter_matrix:                          0.0E+00
 QS|                         eps_core_charge:                            1.0E-15
 QS|                         eps_rho_gspace:                             1.0E-13
 QS|                         eps_rho_rspace:                             1.0E-13
 QS|                         eps_gvg_rspace:                             3.2E-07
 QS|                         eps_ppl:                                    1.0E-02
 QS|                         eps_ppnl:                                   3.2E-09


 ATOMIC KIND INFORMATION

  1. Atomic kind: O                                     Number of atoms:     101

     Orbital Basis Set                                        DZVP-MOLOPT-SR-GTH

       Number of orbital shell sets:                                           1
       Number of orbital shells:                                               5
       Number of primitive Cartesian functions:                                5
       Number of Cartesian basis functions:                                   14
       Number of spherical basis functions:                                   13
       Norm type:                                                              2

       Normalised Cartesian orbitals:

                        Set   Shell   Orbital            Exponent    Coefficient

                          1       1    2s               10.389228       0.396646
                                                         3.849621       0.208811
                                                         1.388401      -0.301641
                                                         0.496955      -0.274061
                                                         0.162492      -0.033677

                          1       2    3s               10.389228       0.303673
                                                         3.849621       0.240943
                                                         1.388401      -0.313066
                                                         0.496955      -0.043055
                                                         0.162492       0.213991

                          1       3    3px              10.389228      -1.530415
                                                         3.849621      -1.371928
                                                         1.388401      -0.761951
                                                         0.496955      -0.253695
                                                         0.162492      -0.035541
                          1       3    3py              10.389228      -1.530415
                                                         3.849621      -1.371928
                                                         1.388401      -0.761951
                                                         0.496955      -0.253695
                                                         0.162492      -0.035541
                          1       3    3pz              10.389228      -1.530415
                                                         3.849621      -1.371928
                                                         1.388401      -0.761951
                                                         0.496955      -0.253695
                                                         0.162492      -0.035541

                          1       4    4px              10.389228      -0.565392
                                                         3.849621      -0.038231
                                                         1.388401      -0.382373
                                                         0.496955       0.179070
                                                         0.162492       0.122714
                          1       4    4py              10.389228      -0.565392
                                                         3.849621      -0.038231
                                                         1.388401      -0.382373
                                                         0.496955       0.179070
                                                         0.162492       0.122714
                          1       4    4pz              10.389228      -0.565392
                                                         3.849621      -0.038231
                                                         1.388401      -0.382373
                                                         0.496955       0.179070
                                                         0.162492       0.122714

                          1       5    4dx2             10.389228       1.867377
                                                         3.849621       0.670994
                                                         1.388401       1.353441
                                                         0.496955       0.273538
                                                         0.162492       0.006620
                          1       5    4dxy             10.389228       3.234392
                                                         3.849621       1.162195
                                                         1.388401       2.344229
                                                         0.496955       0.473781
                                                         0.162492       0.011466
                          1       5    4dxz             10.389228       3.234392
                                                         3.849621       1.162195
                                                         1.388401       2.344229
                                                         0.496955       0.473781
                                                         0.162492       0.011466
                          1       5    4dy2             10.389228       1.867377
                                                         3.849621       0.670994
                                                         1.388401       1.353441
                                                         0.496955       0.273538
                                                         0.162492       0.006620
                          1       5    4dyz             10.389228       3.234392
                                                         3.849621       1.162195
                                                         1.388401       2.344229
                                                         0.496955       0.473781
                                                         0.162492       0.011466
                          1       5    4dz2             10.389228       1.867377
                                                         3.849621       0.670994
                                                         1.388401       1.353441
                                                         0.496955       0.273538
                                                         0.162492       0.006620

       Atomic covalent radius [Angstrom]:                                  0.730

       Atomic van der Waals radius [Angstrom]:                             1.520

     GTH Potential information for                                    GTH-PBE-q6

       Description:                       Goedecker-Teter-Hutter pseudopotential
                                           Goedecker et al., PRB 54, 1703 (1996)
                                          Hartwigsen et al., PRB 58, 3641 (1998)
                                                      Krack, TCA 114, 145 (2005)

       Gaussian exponent of the core charge distribution:               8.360253
       Electronic configuration (s p d ...):                               2   4

       Parameters of the local part of the GTH pseudopotential:

                          rloc        C1          C2          C3          C4
                        0.244554  -16.667215    2.487311

       Parameters of the non-local part of the GTH pseudopotential:

                   l      r(l)      h(i,j,l)

                   0    0.220956   18.337458
                   1    0.211332

  2. Atomic kind: H                                     Number of atoms:     202

     Orbital Basis Set                                        DZVP-MOLOPT-SR-GTH

       Number of orbital shell sets:                                           1
       Number of orbital shells:                                               3
       Number of primitive Cartesian functions:                                5
       Number of Cartesian basis functions:                                    5
       Number of spherical basis functions:                                    5
       Norm type:                                                              2

       Normalised Cartesian orbitals:

                        Set   Shell   Orbital            Exponent    Coefficient

                          1       1    2s               10.068468      -0.133023
                                                         2.680223      -0.177618
                                                         0.791502      -0.258419
                                                         0.239116      -0.107525
                                                         0.082193      -0.014019

                          1       2    3s               10.068468       0.344673
                                                         2.680223       1.819821
                                                         0.791502      -0.999069
                                                         0.239116       0.017430
                                                         0.082193       0.082660

                          1       3    3px              10.068468       0.155326
                                                         2.680223       0.367157
                                                         0.791502       0.311480
                                                         0.239116       0.080105
                                                         0.082193       0.033440
                          1       3    3py              10.068468       0.155326
                                                         2.680223       0.367157
                                                         0.791502       0.311480
                                                         0.239116       0.080105
                                                         0.082193       0.033440
                          1       3    3pz              10.068468       0.155326
                                                         2.680223       0.367157
                                                         0.791502       0.311480
                                                         0.239116       0.080105
                                                         0.082193       0.033440

       Atomic covalent radius [Angstrom]:                                  0.320

       Atomic van der Waals radius [Angstrom]:                             1.090

     GTH Potential information for                                    GTH-PBE-q1

       Description:                       Goedecker-Teter-Hutter pseudopotential
                                           Goedecker et al., PRB 54, 1703 (1996)
                                          Hartwigsen et al., PRB 58, 3641 (1998)
                                                      Krack, TCA 114, 145 (2005)

       Gaussian exponent of the core charge distribution:              12.500000
       Electronic configuration (s p d ...):                                   1

       Parameters of the local part of the GTH pseudopotential:

                          rloc        C1          C2          C3          C4
                        0.200000   -4.178900    0.724463

  3. Atomic kind: Pt                                    Number of atoms:     216

     Orbital Basis Set                      DZVP-A5-Q10-323-MOL-T1-DERIVED_SET-1

       Number of orbital shell sets:                                           1
       Number of orbital shells:                                               6
       Number of primitive Cartesian functions:                                5
       Number of Cartesian basis functions:                                   23
       Number of spherical basis functions:                                   20
       Norm type:                                                              2

       Normalised Cartesian orbitals:

                        Set   Shell   Orbital            Exponent    Coefficient

                          1       1    2s                2.521825       0.177473
                                                         1.453920      -0.063399
                                                         0.614053      -0.407089
                                                         0.232656       0.262254
                                                         0.074788       0.047371

                          1       2    3s                2.521825      -0.049056
                                                         1.453920       0.044904
                                                         0.614053      -0.009756
                                                         0.232656      -0.144709
                                                         0.074788       0.144085

                          1       3    3px               2.521825      -0.317572
                                                         1.453920       0.534826
                                                         0.614053      -0.489458
                                                         0.232656       0.245631
                                                         0.074788       0.018221
                          1       3    3py               2.521825      -0.317572
                                                         1.453920       0.534826
                                                         0.614053      -0.489458
                                                         0.232656       0.245631
                                                         0.074788       0.018221
                          1       3    3pz               2.521825      -0.317572
                                                         1.453920       0.534826
                                                         0.614053      -0.489458
                                                         0.232656       0.245631
                                                         0.074788       0.018221

                          1       4    4dx2              2.521825       3.008522
                                                         1.453920      -1.224251
                                                         0.614053       0.225691
                                                         0.232656       0.125144
                                                         0.074788      -0.015348
                          1       4    4dxy              2.521825       5.210912
                                                         1.453920      -2.120465
                                                         0.614053       0.390909
                                                         0.232656       0.216756
                                                         0.074788      -0.026584
                          1       4    4dxz              2.521825       5.210912
                                                         1.453920      -2.120465
                                                         0.614053       0.390909
                                                         0.232656       0.216756
                                                         0.074788      -0.026584
                          1       4    4dy2              2.521825       3.008522
                                                         1.453920      -1.224251
                                                         0.614053       0.225691
                                                         0.232656       0.125144
                                                         0.074788      -0.015348
                          1       4    4dyz              2.521825       5.210912
                                                         1.453920      -2.120465
                                                         0.614053       0.390909
                                                         0.232656       0.216756
                                                         0.074788      -0.026584
                          1       4    4dz2              2.521825       3.008522
                                                         1.453920      -1.224251
                                                         0.614053       0.225691
                                                         0.232656       0.125144
                                                         0.074788      -0.015348

                          1       5    5dx2              2.521825       0.698026
                                                         1.453920      -1.511486
                                                         0.614053      -0.335394
                                                         0.232656      -0.025564
                                                         0.074788      -0.002699
                          1       5    5dxy              2.521825       1.209017
                                                         1.453920      -2.617970
                                                         0.614053      -0.580920
                                                         0.232656      -0.044277
                                                         0.074788      -0.004674
                          1       5    5dxz              2.521825       1.209017
                                                         1.453920      -2.617970
                                                         0.614053      -0.580920
                                                         0.232656      -0.044277
                                                         0.074788      -0.004674
                          1       5    5dy2              2.521825       0.698026
                                                         1.453920      -1.511486
                                                         0.614053      -0.335394
                                                         0.232656      -0.025564
                                                         0.074788      -0.002699
                          1       5    5dyz              2.521825       1.209017
                                                         1.453920      -2.617970
                                                         0.614053      -0.580920
                                                         0.232656      -0.044277
                                                         0.074788      -0.004674
                          1       5    5dz2              2.521825       0.698026
                                                         1.453920      -1.511486
                                                         0.614053      -0.335394
                                                         0.232656      -0.025564
                                                         0.074788      -0.002699

                          1       6    6dx2              2.521825       0.831079
                                                         1.453920      -0.709226
                                                         0.614053      -0.137351
                                                         0.232656       0.068642
                                                         0.074788       0.011745
                          1       6    6dxy              2.521825       1.439472
                                                         1.453920      -1.228415
                                                         0.614053      -0.237899
                                                         0.232656       0.118891
                                                         0.074788       0.020343
                          1       6    6dxz              2.521825       1.439472
                                                         1.453920      -1.228415
                                                         0.614053      -0.237899
                                                         0.232656       0.118891
                                                         0.074788       0.020343
                          1       6    6dy2              2.521825       0.831079
                                                         1.453920      -0.709226
                                                         0.614053      -0.137351
                                                         0.232656       0.068642
                                                         0.074788       0.011745
                          1       6    6dyz              2.521825       1.439472
                                                         1.453920      -1.228415
                                                         0.614053      -0.237899
                                                         0.232656       0.118891
                                                         0.074788       0.020343
                          1       6    6dz2              2.521825       0.831079
                                                         1.453920      -0.709226
                                                         0.614053      -0.137351
                                                         0.232656       0.068642
                                                         0.074788       0.011745

       Atomic covalent radius [Angstrom]:                                  1.300

       Atomic van der Waals radius [Angstrom]:                             1.750

     GTH Potential information for                                   GTH-PBE-q10

       Description:                       Goedecker-Teter-Hutter pseudopotential
                                           Goedecker et al., PRB 54, 1703 (1996)
                                          Hartwigsen et al., PRB 58, 3641 (1998)
                                                      Krack, TCA 114, 145 (2005)

       Gaussian exponent of the core charge distribution:               1.317676
       Electronic configuration (s p d ...):                           1   0   9

       Parameters of the local part of the GTH pseudopotential:

                          rloc        C1          C2          C3          C4
                        0.616000   11.313635

       Parameters of the non-local part of the GTH pseudopotential:

                   l      r(l)      h(i,j,l)

                   0    0.550904    4.733491   -1.784594
                                   -1.784594    2.303901
                   1    0.674138    2.534798   -1.778066
                                   -1.778066    2.103836
                   2    0.457392   -7.264011    2.558665
                                    2.558665   -2.901253


 MOLECULE KIND INFORMATION


 All atoms are their own molecule, skipping detailed information


 TOTAL NUMBERS AND MAXIMUM NUMBERS

  Total number of            - Atomic kinds:                                   3
                             - Atoms:                                        519
                             - Shell sets:                                   519
                             - Shells:                                      2407
                             - Primitive Cartesian functions:               2595
                             - Cartesian basis functions:                   7392
                             - Spherical basis functions:                   6643

  Maximum angular momentum of- Orbital basis functions:                        2
                             - Local part of the GTH pseudopotential:          2
                             - Non-local part of the GTH pseudopotential:      4


 MODULE QUICKSTEP:  ATOMIC COORDINATES IN angstrom

 Atom  Kind  Element       X           Y           Z          Z(eff)       Mass
    1   1 O    8      -0.630000   -7.650001   35.458001       6.0000     15.9994
    2   2 H    1      -1.510000   -7.690001   34.998000       1.0000      1.0079
    3   2 H    1      -0.030000   -7.460001   34.737999       1.0000      1.0079
    4   1 O    8       5.890000   -1.930000   29.967999       6.0000     15.9994
    5   2 H    1       5.930000   -1.650000   28.997998       1.0000      1.0079
    6   2 H    1       5.140000   -1.560000   30.557999       1.0000      1.0079
    7   1 O    8       4.830000   17.880001   29.947998       6.0000     15.9994
    8   2 H    1       5.070000   17.950001   28.918000       1.0000      1.0079
    9   2 H    1       5.690000   18.070000   30.477997       1.0000      1.0079
   10   1 O    8      -5.800000   -3.460000   35.147999       6.0000     15.9994
   11   2 H    1      -5.810000   -4.390000   35.458001       1.0000      1.0079
   12   2 H    1      -5.060000   -3.030000   35.678000       1.0000      1.0079
   13   1 O    8       1.150000  -14.940001   39.598000       6.0000     15.9994
   14   2 H    1       1.020000  -15.200001   40.548001       1.0000      1.0079
   15   2 H    1       0.270000  -15.160000   39.108000       1.0000      1.0079
   16   1 O    8      11.540001   -3.710000   30.458001       6.0000     15.9994
   17   2 H    1      11.570001   -3.400000   31.427998       1.0000      1.0079
   18   2 H    1      12.500000   -3.920000   30.458001       1.0000      1.0079
   19   1 O    8      -8.030001   -5.180000   31.727997       6.0000     15.9994
   20   2 H    1      -8.410000   -5.800000   30.997998       1.0000      1.0079
   21   2 H    1      -8.110001   -4.250000   31.407999       1.0000      1.0079
   22   1 O    8     -13.130001   -7.560000   36.687998       6.0000     15.9994
   23   2 H    1     -12.430000   -8.130000   37.107998       1.0000      1.0079
   24   2 H    1     -13.780001   -7.420001   37.418000       1.0000      1.0079
   25   1 O    8       9.810000    0.820000   28.857998       6.0000     15.9994
   26   2 H    1      10.280000    0.010000   29.268002       1.0000      1.0079
   27   2 H    1       8.820001    0.830000   28.957997       1.0000      1.0079
   28   1 O    8     -26.960001   21.150000   34.298001       6.0000     15.9994
   29   2 H    1     -26.230001   21.030003   33.708000       1.0000      1.0079
   30   2 H    1      -9.900001   20.480001   34.967999       1.0000      1.0079
   31   1 O    8     -10.200001   12.750001   30.487999       6.0000     15.9994
   32   2 H    1     -10.580001   13.500000   29.958001       1.0000      1.0079
   33   2 H    1     -10.500001   12.830001   31.438000       1.0000      1.0079
   34   1 O    8      -1.320000    2.400000   38.057999       6.0000     15.9994
   35   2 H    1      -0.470000    2.840000   38.157999       1.0000      1.0079
   36   2 H    1      -1.360000    1.570000   38.467999       1.0000      1.0079
   37   1 O    8      -4.160000    0.970000   32.647999       6.0000     15.9994
   38   2 H    1      -3.590000    1.700000   32.958000       1.0000      1.0079
   39   2 H    1      -5.060000    1.290000   32.577999       1.0000      1.0079
   40   1 O    8     -11.220001   -9.380000   37.848000       6.0000     15.9994
   41   2 H    1     -10.520000   -9.690001   37.217999       1.0000      1.0079
   42   2 H    1     -11.900001  -10.080000   37.758000       1.0000      1.0079
   43   1 O    8       4.170000    4.290000   29.947998       6.0000     15.9994
   44   2 H    1       3.220000    4.330000   30.197998       1.0000      1.0079
   45   2 H    1       4.260000    3.560000   29.278000       1.0000      1.0079
   46   1 O    8       0.010000   -5.310000   30.228001       6.0000     15.9994
   47   2 H    1      -0.880000   -5.520000   29.787999       1.0000      1.0079
   48   2 H    1       0.560000   -6.140000   30.397999       1.0000      1.0079
   49   1 O    8       0.770000   -1.450000   30.107998       6.0000     15.9994
   50   2 H    1      -0.170000   -1.790000   30.267998       1.0000      1.0079
   51   2 H    1       1.180000   -2.250000   29.688000       1.0000      1.0079
   52   1 O    8      -8.190001   -3.750000   36.827999       6.0000     15.9994
   53   2 H    1      -8.570001   -4.260000   36.057999       1.0000      1.0079
   54   2 H    1      -7.300000   -3.450000   36.477999       1.0000      1.0079
   55   1 O    8       2.580000    8.270000   32.647999       6.0000     15.9994
   56   2 H    1       1.860000    8.860001   32.187998       1.0000      1.0079
   57   2 H    1       2.570000    7.480001   32.037999       1.0000      1.0079
   58   1 O    8      13.340001    0.290000   30.237999       6.0000     15.9994
   59   2 H    1      13.540001    1.150000   29.798001       1.0000      1.0079
   60   2 H    1      13.320000    0.550000   31.157999       1.0000      1.0079
   61   1 O    8      17.580002   -4.760000   38.357998       6.0000     15.9994
   62   2 H    1      18.000000   -5.650000   38.577999       1.0000      1.0079
   63   2 H    1      17.690001   -4.230000   39.147999       1.0000      1.0079
   64   1 O    8     -22.970001   11.020000   36.418000       6.0000     15.9994
   65   2 H    1      -6.690001   10.700001   37.198000       1.0000      1.0079
   66   2 H    1      -6.580000   10.850000   35.537999       1.0000      1.0079
   67   1 O    8      -0.660000   13.410001   37.848000       6.0000     15.9994
   68   2 H    1      -1.600000   13.370000   38.178000       1.0000      1.0079
   69   2 H    1      -0.500000   12.520000   37.498000       1.0000      1.0079
   70   1 O    8       1.420000    4.010000   30.228001       6.0000     15.9994
   71   2 H    1       1.510000    3.190000   29.747998       1.0000      1.0079
   72   2 H    1       0.560000    4.410000   30.008000       1.0000      1.0079
   73   1 O    8      18.490002    6.080000   37.177998       6.0000     15.9994
   74   2 H    1      18.710001    6.520000   38.057999       1.0000      1.0079
   75   2 H    1      18.620001    6.730001   36.477999       1.0000      1.0079
   76   1 O    8       2.750000    8.360001   29.097996       6.0000     15.9994
   77   2 H    1       3.560000    7.930000   29.568001       1.0000      1.0079
   78   2 H    1       2.670000    9.250001   29.478001       1.0000      1.0079
   79   1 O    8      -3.130000   10.410000   34.377999       6.0000     15.9994
   80   2 H    1      -2.200000   10.080000   34.068001       1.0000      1.0079
   81   2 H    1      -3.220000   10.130000   35.358000       1.0000      1.0079
   82   1 O    8      -3.920000    7.120000   32.918000       6.0000     15.9994
   83   2 H    1      -3.090000    7.140000   33.387999       1.0000      1.0079
   84   2 H    1      -4.290000    6.290000   33.317999       1.0000      1.0079
   85   1 O    8      -9.100000   -0.140000   34.798001       6.0000     15.9994
   86   2 H    1      -8.910000   -0.550000   35.717999       1.0000      1.0079
   87   2 H    1      -9.920000   -0.690000   34.558001       1.0000      1.0079
   88   1 O    8      -9.830000  -17.220001   35.938000       6.0000     15.9994
   89   2 H    1      -9.950001  -18.170000   36.178000       1.0000      1.0079
   90   2 H    1      -9.880000  -17.280001   34.958001       1.0000      1.0079
   91   1 O    8       4.600000   -5.140000   36.757998       6.0000     15.9994
   92   2 H    1       3.720000   -4.670000   36.598000       1.0000      1.0079
   93   2 H    1       4.340000   -6.140000   36.628001       1.0000      1.0079
   94   1 O    8     -10.360001    3.400000   31.188000       6.0000     15.9994
   95   2 H    1      -9.690001    4.020000   30.637999       1.0000      1.0079
   96   2 H    1     -11.260000    3.690000   30.948000       1.0000      1.0079
   97   1 O    8      -2.740000    8.190001   29.017998       6.0000     15.9994
   98   2 H    1      -3.130000    7.240000   29.298001       1.0000      1.0079
   99   2 H    1      -3.270000    8.960000   29.447998       1.0000      1.0079
  100   1 O    8     -13.000001    8.620001   39.668000       6.0000     15.9994
  101   2 H    1     -12.520000    8.710001   38.758000       1.0000      1.0079
  102   2 H    1     -13.110001    9.630001   39.897999       1.0000      1.0079
  103   1 O    8       8.210000   -7.080000   29.958001       6.0000     15.9994
  104   2 H    1      -1.080000    7.810000   29.517998       1.0000      1.0079
  105   2 H    1       8.860001   -7.150001   29.188000       1.0000      1.0079
  106   1 O    8       8.170000   15.930000   31.357998       6.0000     15.9994
  107   2 H    1       9.100000   16.090000   31.527998       1.0000      1.0079
  108   2 H    1       7.860000   15.810001   32.287999       1.0000      1.0079
  109   1 O    8       5.290000   -4.550000   39.358000       6.0000     15.9994
  110   2 H    1       5.020000   -5.420001   39.858000       1.0000      1.0079
  111   2 H    1       4.870000   -4.750000   38.497998       1.0000      1.0079
  112   1 O    8      -9.760000   10.260000   32.758000       6.0000     15.9994
  113   2 H    1      -9.490001   10.020000   31.848000       1.0000      1.0079
  114   2 H    1     -10.330000   11.080000   32.727999       1.0000      1.0079
  115   1 O    8      -8.830000    5.470000   37.767998       6.0000     15.9994
  116   2 H    1      -8.690001    5.780000   36.817999       1.0000      1.0079
  117   2 H    1      -9.150001    4.580000   37.688000       1.0000      1.0079
  118   1 O    8      19.070000  -11.470001   29.938000       6.0000     15.9994
  119   2 H    1      20.080002  -11.430000   30.017998       1.0000      1.0079
  120   2 H    1      18.890001  -12.360001   29.408001       1.0000      1.0079
  121   1 O    8     -20.820000   19.880001   38.378001       6.0000     15.9994
  122   2 H    1      -4.750000   19.220001   38.478001       1.0000      1.0079
  123   2 H    1     -20.040001   19.330002   38.548001       1.0000      1.0079
  124   1 O    8      -6.520000    4.200000   39.928000       6.0000     15.9994
  125   2 H    1      -5.880000    3.860000   39.258000       1.0000      1.0079
  126   2 H    1      -5.980001    4.460000   40.647999       1.0000      1.0079
  127   1 O    8       2.520000    2.200000   32.567999       6.0000     15.9994
  128   2 H    1       2.260000    3.110000   32.788000       1.0000      1.0079
  129   2 H    1       2.950000    1.940000   33.387999       1.0000      1.0079
  130   1 O    8       0.940000   -0.020000   35.848000       6.0000     15.9994
  131   2 H    1       1.690000   -0.570000   36.108000       1.0000      1.0079
  132   2 H    1       1.460000    0.800000   35.927998       1.0000      1.0079
  133   1 O    8      -4.740000   16.110001   35.157999       6.0000     15.9994
  134   2 H    1      -3.720000   16.280001   35.297999       1.0000      1.0079
  135   2 H    1      -4.820000   15.180001   35.518000       1.0000      1.0079
  136   1 O    8       2.940000   13.360001   29.168000       6.0000     15.9994
  137   2 H    1       2.820000   12.460001   29.618000       1.0000      1.0079
  138   2 H    1       3.830000   13.700001   29.487999       1.0000      1.0079
  139   1 O    8       7.030000    3.830000   33.638001       6.0000     15.9994
  140   2 H    1       6.510000    4.640000   33.897999       1.0000      1.0079
  141   2 H    1       6.870000    3.640000   32.627999       1.0000      1.0079
  142   1 O    8     -12.090001    7.330000   30.388001       6.0000     15.9994
  143   2 H    1     -12.130001    6.440001   29.907997       1.0000      1.0079
  144   2 H    1     -11.500001    7.820001   29.787999       1.0000      1.0079
  145   1 O    8      -3.730000    6.100000   30.347996       6.0000     15.9994
  146   2 H    1      -4.070000    5.210000   30.237999       1.0000      1.0079
  147   2 H    1      -3.780000    6.420000   31.278000       1.0000      1.0079
  148   1 O    8       7.800000   -5.270000   34.428000       6.0000     15.9994
  149   2 H    1       7.410001   -6.220000   34.558001       1.0000      1.0079
  150   2 H    1       8.220000   -5.300000   33.538000       1.0000      1.0079
  151   1 O    8      -6.740000   15.340000   29.008000       6.0000     15.9994
  152   2 H    1      -5.860000   15.570001   29.487999       1.0000      1.0079
  153   2 H    1      -7.210000   14.560001   29.338002       1.0000      1.0079
  154   1 O    8       2.200000    5.030000   33.627999       6.0000     15.9994
  155   2 H    1       2.080000    4.500000   34.477999       1.0000      1.0079
  156   2 H    1       3.070000    5.460000   33.758000       1.0000      1.0079
  157   1 O    8     -15.140000   -3.840000   29.227997       6.0000     15.9994
  158   2 H    1     -14.280001   -4.080000   29.557999       1.0000      1.0079
  159   2 H    1     -15.740002   -4.550000   29.568001       1.0000      1.0079
  160   1 O    8      -2.250000   16.590000   35.327999       6.0000     15.9994
  161   2 H    1      -1.950000   17.260000   34.647999       1.0000      1.0079
  162   2 H    1      -1.570000   15.890001   35.157999       1.0000      1.0079
  163   1 O    8       1.220000   -7.840000   33.367998       6.0000     15.9994
  164   2 H    1       1.350000   -8.830000   33.327999       1.0000      1.0079
  165   2 H    1       1.450000   -7.430000   32.528000       1.0000      1.0079
  166   1 O    8       3.600000   14.920001   35.397999       6.0000     15.9994
  167   2 H    1      12.770000    0.800000   35.797999       1.0000      1.0079
  168   2 H    1       3.690000   15.000001   34.428000       1.0000      1.0079
  169   1 O    8      -2.480000    1.770000   35.808001       6.0000     15.9994
  170   2 H    1      -1.770000    2.080000   36.477999       1.0000      1.0079
  171   2 H    1      -2.690000    2.460000   35.098000       1.0000      1.0079
  172   1 O    8      -7.190001    3.900000   33.968001       6.0000     15.9994
  173   2 H    1      -8.160001    3.980000   33.957999       1.0000      1.0079
  174   2 H    1      -7.060000    3.170000   33.287999       1.0000      1.0079
  175   1 O    8       7.430000    0.900000   30.037999       6.0000     15.9994
  176   2 H    1       7.060000    1.730000   30.458001       1.0000      1.0079
  177   2 H    1       6.670001    0.340000   29.947998       1.0000      1.0079
  178   1 O    8       1.150000   14.060000   32.607998       6.0000     15.9994
  179   2 H    1       0.570000   13.580000   31.918000       1.0000      1.0079
  180   2 H    1       9.030001   -0.510000   33.467999       1.0000      1.0079
  181   1 O    8       6.880000   18.300001   31.527998       6.0000     15.9994
  182   2 H    1       7.470000   19.130001   31.768000       1.0000      1.0079
  183   2 H    1       7.400000   17.530001   31.338000       1.0000      1.0079
  184   1 O    8       0.170000   12.070000   30.497998       6.0000     15.9994
  185   2 H    1      -0.770000   12.090001   30.518002       1.0000      1.0079
  186   2 H    1       0.370000   12.370001   29.598000       1.0000      1.0079
  187   1 O    8       4.450000   -0.550000   31.687998       6.0000     15.9994
  188   2 H    1       4.840000   -0.730000   32.607998       1.0000      1.0079
  189   2 H    1       3.470000   -0.770000   31.887999       1.0000      1.0079
  190   1 O    8      12.760000   -1.970000   36.508000       6.0000     15.9994
  191   2 H    1      13.730000   -2.160000   36.508000       1.0000      1.0079
  192   2 H    1      -4.280000   -1.110000   36.038000       1.0000      1.0079
  193   1 O    8     -17.470001    4.810000   36.188000       6.0000     15.9994
  194   2 H    1     -16.630001    5.360000   36.568001       1.0000      1.0079
  195   2 H    1     -17.010000    4.020000   35.817999       1.0000      1.0079
  196   1 O    8       1.920000   -0.900000   32.277998       6.0000     15.9994
  197   2 H    1       1.400000   -1.190000   31.427998       1.0000      1.0079
  198   2 H    1       1.850000   -1.630000   32.837998       1.0000      1.0079
  199   1 O    8       8.080000   24.270000   39.307999       6.0000     15.9994
  200   2 H    1       8.340000   24.790001   38.427998       1.0000      1.0079
  201   2 H    1       7.170000   24.550001   39.338000       1.0000      1.0079
  202   1 O    8      -1.050000    0.270000   33.727999       6.0000     15.9994
  203   2 H    1      -9.950001   15.260000   34.547999       1.0000      1.0079
  204   2 H    1      -0.220000   -0.110000   34.017998       1.0000      1.0079
  205   1 O    8      -0.810000   -0.610000   38.028000       6.0000     15.9994
  206   2 H    1      -8.760000   14.140000   37.168000       1.0000      1.0079
  207   2 H    1      -9.670001   13.110001   38.007998       1.0000      1.0079
  208   1 O    8       6.630001   11.380000   39.528000       6.0000     15.9994
  209   2 H    1       6.100000   10.920000   40.237999       1.0000      1.0079
  210   2 H    1       7.490000   11.540001   39.987999       1.0000      1.0079
  211   1 O    8     -14.300001    8.310000   35.388001       6.0000     15.9994
  212   2 H    1     -14.150001    7.960001   34.467999       1.0000      1.0079
  213   2 H    1     -13.300000    8.320000   35.697998       1.0000      1.0079
  214   1 O    8      -4.760000    3.130000   38.327999       6.0000     15.9994
  215   2 H    1      -4.390000    2.310000   38.838000       1.0000      1.0079
  216   2 H    1      -5.400000    2.740000   37.668000       1.0000      1.0079
  217   1 O    8       8.410000    5.050000   30.077999       6.0000     15.9994
  218   2 H    1       7.980001    4.980001   29.188000       1.0000      1.0079
  219   2 H    1       9.130000    4.430000   29.938000       1.0000      1.0079
  220   1 O    8     -12.970000    1.470000   30.207997       6.0000     15.9994
  221   2 H    1     -13.100000    2.060000   30.967999       1.0000      1.0079
  222   2 H    1     -12.610001    0.680000   30.618000       1.0000      1.0079
  223   1 O    8      -3.330000    3.410000   33.608000       6.0000     15.9994
  224   2 H    1      -2.850000    3.630000   32.797999       1.0000      1.0079
  225   2 H    1      -3.730000    4.180000   34.127999       1.0000      1.0079
  226   1 O    8      -4.820000   -1.180000   39.128001       6.0000     15.9994
  227   2 H    1      -4.570000   -1.440000   38.237999       1.0000      1.0079
  228   2 H    1      -5.780000   -0.980000   39.198000       1.0000      1.0079
  229   1 O    8     -12.660000   -4.160000   30.127999       6.0000     15.9994
  230   2 H    1     -12.010001   -3.400000   29.987999       1.0000      1.0079
  231   2 H    1     -12.870001   -4.360000   31.157999       1.0000      1.0079
  232   1 O    8      14.260001   -1.970000   33.227999       6.0000     15.9994
  233   2 H    1      14.500000   -1.080000   33.518000       1.0000      1.0079
  234   2 H    1      13.260001   -2.130000   33.098000       1.0000      1.0079
  235   1 O    8     -12.270001    1.600000   38.467999       6.0000     15.9994
  236   2 H    1     -12.250000    1.800000   39.458000       1.0000      1.0079
  237   2 H    1     -11.370001    1.960000   38.267998       1.0000      1.0079
  238   1 O    8       5.110001    8.450001   33.727999       6.0000     15.9994
  239   2 H    1       5.850000    8.810000   33.188000       1.0000      1.0079
  240   2 H    1       4.310000    8.550000   33.197998       1.0000      1.0079
  241   1 O    8       1.580000  -12.680000   32.428000       6.0000     15.9994
  242   2 H    1       1.280000  -13.730000   32.458000       1.0000      1.0079
  243   2 H    1       1.630000  -12.420001   31.477999       1.0000      1.0079
  244   1 O    8      -4.880000    9.700001   32.577999       6.0000     15.9994
  245   2 H    1      -4.270000   10.110001   33.237999       1.0000      1.0079
  246   2 H    1      -4.900000    8.720000   32.637999       1.0000      1.0079
  247   1 O    8      -5.010000    5.260000   34.677998       6.0000     15.9994
  248   2 H    1      -5.200000    5.730000   35.478001       1.0000      1.0079
  249   2 H    1      -5.760000    4.720000   34.298001       1.0000      1.0079
  250   1 O    8      -2.950000   13.250000   34.017998       6.0000     15.9994
  251   2 H    1      -2.900000   12.250000   34.098000       1.0000      1.0079
  252   2 H    1      -3.480000   13.520001   34.788000       1.0000      1.0079
  253   1 O    8       1.790000    3.320000   35.727999       6.0000     15.9994
  254   2 H    1      -5.860000   17.320002   35.567999       1.0000      1.0079
  255   2 H    1       1.940000    3.640000   36.687998       1.0000      1.0079
  256   1 O    8      -3.340000   13.600000   38.118000       6.0000     15.9994
  257   2 H    1      -3.640000   14.570000   38.287999       1.0000      1.0079
  258   2 H    1      -3.840000   13.140000   38.838000       1.0000      1.0079
  259   1 O    8     -15.060000    0.850000   38.987999       6.0000     15.9994
  260   2 H    1     -14.880000    0.770000   39.958000       1.0000      1.0079
  261   2 H    1     -15.750000    0.280000   38.727999       1.0000      1.0079
  262   1 O    8       3.380000   12.330000   32.827999       6.0000     15.9994
  263   2 H    1       3.020000   13.260001   32.707999       1.0000      1.0079
  264   2 H    1       3.010000   11.780001   33.608000       1.0000      1.0079
  265   1 O    8      -7.050000   11.100000   33.717999       6.0000     15.9994
  266   2 H    1      -6.290000   10.600000   33.487999       1.0000      1.0079
  267   2 H    1      -7.790000   10.530001   33.527998       1.0000      1.0079
  268   1 O    8      -8.450001   20.270002   31.998000       6.0000     15.9994
  269   2 H    1      -7.540000   20.050001   32.428000       1.0000      1.0079
  270   2 H    1      -8.270000   20.820000   31.248000       1.0000      1.0079
  271   1 O    8      -7.150001    2.360000   36.587998       6.0000     15.9994
  272   2 H    1      -6.720000    1.500000   36.217999       1.0000      1.0079
  273   2 H    1      -7.130001    2.980000   35.817999       1.0000      1.0079
  274   1 O    8       1.730000   -7.220001   38.918000       6.0000     15.9994
  275   2 H    1       2.010000   -7.230001   39.888001       1.0000      1.0079
  276   2 H    1       1.240000   -8.050001   38.807999       1.0000      1.0079
  277   1 O    8      -1.410000   -5.250000   36.717999       6.0000     15.9994
  278   2 H    1      -0.790000   -4.960000   37.458001       1.0000      1.0079
  279   2 H    1      -0.990000   -6.020000   36.268000       1.0000      1.0079
  280   1 O    8       9.890000    7.440000   30.388001       6.0000     15.9994
  281   2 H    1       9.420000    6.600000   30.147999       1.0000      1.0079
  282   2 H    1      10.680000    7.580000   29.758000       1.0000      1.0079
  283   1 O    8      -9.770000    2.880000   38.208000       6.0000     15.9994
  284   2 H    1      -9.130000    2.670000   38.898001       1.0000      1.0079
  285   2 H    1      -9.350000    2.560000   37.388001       1.0000      1.0079
  286   1 O    8      -6.210001  -11.140001   38.438000       6.0000     15.9994
  287   2 H    1      -6.030001  -12.130001   38.527998       1.0000      1.0079
  288   2 H    1      -6.750000  -10.810001   39.228001       1.0000      1.0079
  289   1 O    8       4.590000    7.980001   37.107998       6.0000     15.9994
  290   2 H    1     -11.450001    8.460000   36.907999       1.0000      1.0079
  291   2 H    1       4.740000    7.040000   37.407999       1.0000      1.0079
  292   1 O    8     -11.950001    5.950000   34.298001       6.0000     15.9994
  293   2 H    1     -12.000000    5.770000   35.227999       1.0000      1.0079
  294   2 H    1     -11.800001    6.950001   34.108000       1.0000      1.0079
  295   1 O    8      -2.750000   -4.470000   29.848000       6.0000     15.9994
  296   2 H    1      -2.500000   -3.540000   30.037999       1.0000      1.0079
  297   2 H    1      -2.770000   -4.500000   28.848000       1.0000      1.0079
  298   1 O    8      -3.790000    1.230000   39.818001       6.0000     15.9994
  299   2 H    1      -3.910000    1.640000   40.738001       1.0000      1.0079
  300   2 H    1      -4.420000    0.430000   39.718001       1.0000      1.0079
  301   1 O    8     -13.460001   -1.180000   36.067997       6.0000     15.9994
  302   2 H    1     -13.980001   -2.080000   36.038000       1.0000      1.0079
  303   2 H    1     -12.820001   -1.130000   36.977999       1.0000      1.0079
  304   3 Pt  78       1.600000    0.790000   26.908001      10.0000    195.0840
  305   3 Pt  78       4.360000    0.920000   26.927998      10.0000    195.0840
  306   3 Pt  78       7.220001    0.910000   26.778000      10.0000    195.0840
  307   3 Pt  78      10.190001    0.930000   26.758000      10.0000    195.0840
  308   3 Pt  78      12.990000    0.910000   26.877999      10.0000    195.0840
  309   3 Pt  78      15.740002    0.930000   26.927998      10.0000    195.0840
  310   3 Pt  78       3.110000    3.280000   26.927998      10.0000    195.0840
  311   3 Pt  78       5.830000    3.260000   26.947998      10.0000    195.0840
  312   3 Pt  78       8.660001    3.240000   26.758000      10.0000    195.0840
  313   3 Pt  78      11.500001    3.300000   26.908001      10.0000    195.0840
  314   3 Pt  78      14.250001    3.350000   26.807999      10.0000    195.0840
  315   3 Pt  78       0.200000    3.330000   26.778000      10.0000    195.0840
  316   3 Pt  78       4.460000    5.710001   26.868000      10.0000    195.0840
  317   3 Pt  78       7.190001    5.670000   26.918000      10.0000    195.0840
  318   3 Pt  78      10.070001    5.760000   26.918000      10.0000    195.0840
  319   3 Pt  78      12.900001    5.830000   26.887997      10.0000    195.0840
  320   3 Pt  78      -1.130000    5.750000   26.758000      10.0000    195.0840
  321   3 Pt  78       1.580000    5.680000   26.887997      10.0000    195.0840
  322   3 Pt  78       5.880000    8.150001   26.797997      10.0000    195.0840
  323   3 Pt  78       8.600000    8.120001   26.947998      10.0000    195.0840
  324   3 Pt  78      11.470001    8.110001   27.057999      10.0000    195.0840
  325   3 Pt  78      -2.580000    8.120001   26.908001      10.0000    195.0840
  326   3 Pt  78       0.240000    8.150001   26.737999      10.0000    195.0840
  327   3 Pt  78       3.060000    8.140000   26.848000      10.0000    195.0840
  328   3 Pt  78       7.200000   10.580001   26.817997      10.0000    195.0840
  329   3 Pt  78      10.160000   10.520000   26.918000      10.0000    195.0840
  330   3 Pt  78      -3.920000   10.680000   26.908001      10.0000    195.0840
  331   3 Pt  78      -1.040000   10.580001   26.747998      10.0000    195.0840
  332   3 Pt  78       1.610000   10.660001   26.877999      10.0000    195.0840
  333   3 Pt  78       4.330000   10.620001   26.927998      10.0000    195.0840
  334   3 Pt  78       8.690001   12.880001   26.967999      10.0000    195.0840
  335   3 Pt  78      -5.260000   13.040000   26.887997      10.0000    195.0840
  336   3 Pt  78      -2.560000   13.220000   26.877999      10.0000    195.0840
  337   3 Pt  78       0.160000   13.090000   26.838002      10.0000    195.0840
  338   3 Pt  78       3.110000   13.040000   26.848000      10.0000    195.0840
  339   3 Pt  78       5.960000   13.100000   26.887997      10.0000    195.0840
  340   3 Pt  78       0.170000    1.510000   24.447998      10.0000    195.0840
  341   3 Pt  78       2.910000    1.520000   24.537999      10.0000    195.0840
  342   3 Pt  78       5.790000    1.610000   24.467999      10.0000    195.0840
  343   3 Pt  78       8.680000    1.520000   24.478001      10.0000    195.0840
  344   3 Pt  78      11.530000    1.540000   24.457997      10.0000    195.0840
  345   3 Pt  78      14.230001    1.590000   24.447998      10.0000    195.0840
  346   3 Pt  78       1.700000    3.980000   24.527996      10.0000    195.0840
  347   3 Pt  78       4.480000    4.020000   24.467999      10.0000    195.0840
  348   3 Pt  78       7.270000    4.110000   24.537999      10.0000    195.0840
  349   3 Pt  78       9.990001    4.010000   24.438000      10.0000    195.0840
  350   3 Pt  78      12.920000    4.170000   24.587998      10.0000    195.0840
  351   3 Pt  78      -1.270000    3.940000   24.377999      10.0000    195.0840
  352   3 Pt  78       3.010000    6.510000   24.618000      10.0000    195.0840
  353   3 Pt  78       5.840001    6.360001   24.478001      10.0000    195.0840
  354   3 Pt  78       8.630000    6.480000   24.548001      10.0000    195.0840
  355   3 Pt  78      11.480000    6.490001   24.517998      10.0000    195.0840
  356   3 Pt  78      -2.600000    6.520000   24.568001      10.0000    195.0840
  357   3 Pt  78       0.140000    6.360001   24.508000      10.0000    195.0840
  358   3 Pt  78       4.440001    8.910000   24.557999      10.0000    195.0840
  359   3 Pt  78       7.240000    8.880001   24.508000      10.0000    195.0840
  360   3 Pt  78      10.050000    8.870000   24.638001      10.0000    195.0840
  361   3 Pt  78      -4.080000    8.870000   24.638001      10.0000    195.0840
  362   3 Pt  78      -1.190000    8.870000   24.487999      10.0000    195.0840
  363   3 Pt  78       1.580000    8.850000   24.487999      10.0000    195.0840
  364   3 Pt  78       5.730000   11.280001   24.568001      10.0000    195.0840
  365   3 Pt  78       8.640000   11.250000   24.568001      10.0000    195.0840
  366   3 Pt  78      -5.360000   11.320001   24.557999      10.0000    195.0840
  367   3 Pt  78      -2.630000   11.300000   24.638001      10.0000    195.0840
  368   3 Pt  78       0.250000   11.280001   24.447998      10.0000    195.0840
  369   3 Pt  78       2.980000   11.280001   24.548001      10.0000    195.0840
  370   3 Pt  78       7.240000   13.770000   24.527996      10.0000    195.0840
  371   3 Pt  78      -6.820001   13.660001   24.607998      10.0000    195.0840
  372   3 Pt  78      -4.060000   13.830000   24.527996      10.0000    195.0840
  373   3 Pt  78      -1.130000   13.680000   24.357998      10.0000    195.0840
  374   3 Pt  78       1.700000   13.760000   24.517998      10.0000    195.0840
  375   3 Pt  78       4.480000   13.690001   24.498001      10.0000    195.0840
  376   3 Pt  78      -8.260000   14.500000   22.217999      10.0000    195.0840
  377   3 Pt  78      -5.440001   14.550000   22.298001      10.0000    195.0840
  378   3 Pt  78      -2.570000   14.540001   22.228001      10.0000    195.0840
  379   3 Pt  78       0.190000   14.430000   22.158001      10.0000    195.0840
  380   3 Pt  78       3.010000   14.530001   22.147999      10.0000    195.0840
  381   3 Pt  78       5.810000   14.550000   22.107998      10.0000    195.0840
  382   3 Pt  78       1.660000    2.420000   22.307999      10.0000    195.0840
  383   3 Pt  78       4.410000    2.450000   22.228001      10.0000    195.0840
  384   3 Pt  78       7.230001    2.380000   22.127999      10.0000    195.0840
  385   3 Pt  78       9.990001    2.200000   22.127999      10.0000    195.0840
  386   3 Pt  78      12.890000    2.320000   22.168000      10.0000    195.0840
  387   3 Pt  78      -1.210000    2.300000   22.158001      10.0000    195.0840
  388   3 Pt  78       3.090000    4.790000   22.207997      10.0000    195.0840
  389   3 Pt  78       5.810000    4.800000   22.207997      10.0000    195.0840
  390   3 Pt  78       8.670000    4.810000   22.207997      10.0000    195.0840
  391   3 Pt  78      11.360001    4.770000   22.147999      10.0000    195.0840
  392   3 Pt  78      -2.670000    4.730000   22.177998      10.0000    195.0840
  393   3 Pt  78       0.230000    4.720000   22.217999      10.0000    195.0840
  394   3 Pt  78       4.430000    7.290000   22.247998      10.0000    195.0840
  395   3 Pt  78       7.230001    7.170000   22.237999      10.0000    195.0840
  396   3 Pt  78       9.990001    7.270000   22.287999      10.0000    195.0840
  397   3 Pt  78      -4.110000    7.240000   22.298001      10.0000    195.0840
  398   3 Pt  78      -1.140000    7.180000   22.177998      10.0000    195.0840
  399   3 Pt  78       1.650000    7.150001   22.247998      10.0000    195.0840
  400   3 Pt  78       5.840001    9.750000   22.217999      10.0000    195.0840
  401   3 Pt  78       8.590000    9.670001   22.317997      10.0000    195.0840
  402   3 Pt  78      -5.410000    9.720000   22.337998      10.0000    195.0840
  403   3 Pt  78      -2.630000    9.560000   22.298001      10.0000    195.0840
  404   3 Pt  78       0.250000    9.530001   22.177998      10.0000    195.0840
  405   3 Pt  78       3.050000    9.680000   22.158001      10.0000    195.0840
  406   3 Pt  78       7.190001   12.160001   22.168000      10.0000    195.0840
  407   3 Pt  78      -6.900001   12.130001   22.267998      10.0000    195.0840
  408   3 Pt  78      -4.020000   12.130001   22.247998      10.0000    195.0840
  409   3 Pt  78      -1.250000   12.020000   22.177998      10.0000    195.0840
  410   3 Pt  78       1.580000   12.090001   22.177998      10.0000    195.0840
  411   3 Pt  78       4.380000   12.190001   22.188000      10.0000    195.0840
  412   3 Pt  78       1.600000    0.690000   19.960001      10.0000    195.0840
  413   3 Pt  78       4.460000    0.650000   19.970001      10.0000    195.0840
  414   3 Pt  78       7.280001    0.620000   19.910001      10.0000    195.0840
  415   3 Pt  78       9.940001    0.640000   19.800001      10.0000    195.0840
  416   3 Pt  78      12.820001    0.630000   19.810001      10.0000    195.0840
  417   3 Pt  78      15.530001    0.700000   19.790001      10.0000    195.0840
  418   3 Pt  78       2.970000    3.050000   19.940001      10.0000    195.0840
  419   3 Pt  78       5.730000    3.210000   19.910001      10.0000    195.0840
  420   3 Pt  78       8.500000    3.230000   19.880001      10.0000    195.0840
  421   3 Pt  78      11.380000    3.090000   19.860001      10.0000    195.0840
  422   3 Pt  78      14.180001    3.030000   19.830001      10.0000    195.0840
  423   3 Pt  78       0.120000    3.040000   19.870001      10.0000    195.0840
  424   3 Pt  78       4.300000    5.600000   19.870001      10.0000    195.0840
  425   3 Pt  78       7.110000    5.670000   19.920001      10.0000    195.0840
  426   3 Pt  78       9.950001    5.650000   19.870001      10.0000    195.0840
  427   3 Pt  78      12.700001    5.510000   19.910001      10.0000    195.0840
  428   3 Pt  78      -1.280000    5.470000   19.870001      10.0000    195.0840
  429   3 Pt  78       1.670000    5.480001   19.950001      10.0000    195.0840
  430   3 Pt  78       5.780000    8.080000   19.930001      10.0000    195.0840
  431   3 Pt  78       8.610001    8.050001   19.890001      10.0000    195.0840
  432   3 Pt  78      11.370001    8.030001   19.940001      10.0000    195.0840
  433   3 Pt  78      -2.700000    7.930000   19.880001      10.0000    195.0840
  434   3 Pt  78       0.240000    7.890000   19.860001      10.0000    195.0840
  435   3 Pt  78       3.040000    8.040000   19.890001      10.0000    195.0840
  436   3 Pt  78       7.180000   10.610001   19.950001      10.0000    195.0840
  437   3 Pt  78      10.030001   10.430001   20.000001      10.0000    195.0840
  438   3 Pt  78      -3.990000   10.410000   19.960001      10.0000    195.0840
  439   3 Pt  78      -1.220000   10.330000   19.820001      10.0000    195.0840
  440   3 Pt  78       1.480000   10.420000   19.780001      10.0000    195.0840
  441   3 Pt  78       4.350000   10.450001   19.970001      10.0000    195.0840
  442   3 Pt  78       8.580000   12.940001   19.850001      10.0000    195.0840
  443   3 Pt  78      -5.480001   12.860001   20.080001      10.0000    195.0840
  444   3 Pt  78      -2.670000   12.800001   19.920001      10.0000    195.0840
  445   3 Pt  78       0.050000   12.780001   19.800001      10.0000    195.0840
  446   3 Pt  78       2.860000   12.880001   19.770001      10.0000    195.0840
  447   3 Pt  78       5.660000   12.910000   19.850001      10.0000    195.0840
  448   3 Pt  78       0.040000    1.470000   17.560000      10.0000    195.0840
  449   3 Pt  78       2.940000    1.480000   17.760000      10.0000    195.0840
  450   3 Pt  78       5.770000    1.630000   17.650001      10.0000    195.0840
  451   3 Pt  78       8.540000    1.450000   17.610001      10.0000    195.0840
  452   3 Pt  78      11.320001    1.450000   17.610001      10.0000    195.0840
  453   3 Pt  78      14.110001    1.480000   17.440001      10.0000    195.0840
  454   3 Pt  78       1.520000    4.010000   17.690000      10.0000    195.0840
  455   3 Pt  78       4.280000    4.040000   17.710001      10.0000    195.0840
  456   3 Pt  78       7.050000    4.000000   17.490000      10.0000    195.0840
  457   3 Pt  78       9.840000    3.850000   17.520000      10.0000    195.0840
  458   3 Pt  78      12.670001    3.890000   17.480000      10.0000    195.0840
  459   3 Pt  78      -1.320000    3.880000   17.490000      10.0000    195.0840
  460   3 Pt  78       2.930000    6.330000   17.610001      10.0000    195.0840
  461   3 Pt  78       5.690000    6.310000   17.500000      10.0000    195.0840
  462   3 Pt  78       8.480000    6.400001   17.430000      10.0000    195.0840
  463   3 Pt  78      11.250000    6.340000   17.620000      10.0000    195.0840
  464   3 Pt  78      -2.730000    6.240000   17.520000      10.0000    195.0840
  465   3 Pt  78       0.100000    6.380000   17.560000      10.0000    195.0840
  466   3 Pt  78       4.400000    8.800000   17.630001      10.0000    195.0840
  467   3 Pt  78       7.100000    8.790001   17.590000      10.0000    195.0840
  468   3 Pt  78       9.840000    8.790001   17.610001      10.0000    195.0840
  469   3 Pt  78      -4.220000    8.810000   17.630001      10.0000    195.0840
  470   3 Pt  78      -1.170000    8.730000   17.620000      10.0000    195.0840
  471   3 Pt  78       1.480000    8.730000   17.510001      10.0000    195.0840
  472   3 Pt  78       5.710001   11.260000   17.650001      10.0000    195.0840
  473   3 Pt  78       8.570001   11.270000   17.690000      10.0000    195.0840
  474   3 Pt  78      -5.580000   11.290001   17.800000      10.0000    195.0840
  475   3 Pt  78      -2.820000   11.200000   17.680001      10.0000    195.0840
  476   3 Pt  78       0.080000   11.160001   17.510001      10.0000    195.0840
  477   3 Pt  78       2.910000   11.150000   17.490000      10.0000    195.0840
  478   3 Pt  78       7.070000   13.730000   17.490000      10.0000    195.0840
  479   3 Pt  78      -6.870000   13.640001   17.650001      10.0000    195.0840
  480   3 Pt  78      -4.160000   13.780001   17.680001      10.0000    195.0840
  481   3 Pt  78      -1.350000   13.640001   17.500000      10.0000    195.0840
  482   3 Pt  78       1.470000   13.590001   17.560000      10.0000    195.0840
  483   3 Pt  78       4.250000   13.710001   17.370001      10.0000    195.0840
  484   3 Pt  78      -8.430000   14.420000   15.230000      10.0000    195.0840
  485   3 Pt  78      -5.640000   14.590001   15.310000      10.0000    195.0840
  486   3 Pt  78      -2.880000   14.510001   15.290000      10.0000    195.0840
  487   3 Pt  78       0.060000   14.520000   15.190001      10.0000    195.0840
  488   3 Pt  78       2.780000   14.570000   15.200001      10.0000    195.0840
  489   3 Pt  78       5.580000   14.570000   15.050000      10.0000    195.0840
  490   3 Pt  78       1.470000    2.360000   15.450000      10.0000    195.0840
  491   3 Pt  78       4.250000    2.340000   15.320000      10.0000    195.0840
  492   3 Pt  78       7.140000    2.220000   15.280000      10.0000    195.0840
  493   3 Pt  78       9.830000    2.390000   15.160000      10.0000    195.0840
  494   3 Pt  78      12.610001    2.380000   15.060000      10.0000    195.0840
  495   3 Pt  78      -1.420000    2.340000   15.170000      10.0000    195.0840
  496   3 Pt  78       2.860000    4.730000   15.300000      10.0000    195.0840
  497   3 Pt  78       5.710001    4.740000   15.210001      10.0000    195.0840
  498   3 Pt  78       8.520000    4.760000   15.200001      10.0000    195.0840
  499   3 Pt  78      11.230000    4.780000   15.090000      10.0000    195.0840
  500   3 Pt  78      -2.720000    4.720000   15.220000      10.0000    195.0840
  501   3 Pt  78       0.050000    4.800000   15.260000      10.0000    195.0840
  502   3 Pt  78       4.240000    7.150001   15.220000      10.0000    195.0840
  503   3 Pt  78       7.150001    7.180000   15.110001      10.0000    195.0840
  504   3 Pt  78       9.990001    7.170000   15.230000      10.0000    195.0840
  505   3 Pt  78      -4.180000    7.150001   15.290000      10.0000    195.0840
[...]
 -                                                                             -
 -                                DBCSR STATISTICS                             -
 -                                                                             -
 -------------------------------------------------------------------------------
 COUNTER                                    TOTAL       BLAS       SMM       ACC
 flops     5 x    32 x     5           4045971200       0.0%    100.0%      0.0%
 flops    13 x    32 x     5           5169748480       0.0%    100.0%      0.0%
 flops     5 x    32 x    13           5169748480       0.0%    100.0%      0.0%
 flops    13 x    32 x    13           6103057792       0.0%    100.0%      0.0%
 flops    13 x    32 x    20           8572229120       0.0%    100.0%      0.0%
 flops    20 x    32 x    13           8572229120       0.0%    100.0%      0.0%
 flops     5 x    32 x    20           9202188800       0.0%    100.0%      0.0%
 flops    20 x    32 x     5           9202188800       0.0%    100.0%      0.0%
 flops     5 x     5 x    96          11214316800       0.0%    100.0%      0.0%
 flops     5 x    13 x    96          14257077120       0.0%    100.0%      0.0%
 flops    13 x     5 x    96          14259922560       0.0%    100.0%      0.0%
 flops    13 x    13 x    96          17019430272       0.0%    100.0%      0.0%
 flops    13 x    20 x    96          23594388480       0.0%    100.0%      0.0%
 flops    20 x    13 x    96          23691133440       0.0%    100.0%      0.0%
 flops     5 x    20 x    96          25337548800       0.0%    100.0%      0.0%
 flops    20 x     5 x    96          25422912000       0.0%    100.0%      0.0%
 flops    20 x    32 x    20          74052403200       0.0%    100.0%      0.0%
 flops     5 x     5 x   128         104666956800       0.0%    100.0%      0.0%
 flops     5 x    13 x   128         133066053120       0.0%    100.0%      0.0%
 flops    13 x     5 x   128         133092610560       0.0%    100.0%      0.0%
 flops    13 x    13 x   128         158848015872       0.0%    100.0%      0.0%
 flops    20 x    20 x    96         205186867200       0.0%    100.0%      0.0%
 flops    13 x    20 x   128         220214292480       0.0%    100.0%      0.0%
 flops    20 x    13 x   128         221117245440       0.0%    100.0%      0.0%
 flops     5 x    20 x   128         236483788800       0.0%    100.0%      0.0%
 flops    20 x     5 x   128         237280512000       0.0%    100.0%      0.0%
 flops    20 x    20 x   128        1915077427200       0.0%    100.0%      0.0%
 flops inhomo. stacks                           0       0.0%      0.0%      0.0%
 flops total                         3.849920E+12       0.0%    100.0%      0.0%
 flops max/rank                     35.600769E+09       0.0%    100.0%      0.0%
 matmuls inhomo. stacks                         0       0.0%      0.0%      0.0%
 matmuls total                          103645522       0.0%    100.0%      0.0%
 number of processed stacks               1070854       0.0%    100.0%      0.0%
 average stack size                                     0.0      96.8       0.0
 marketing flops                     7.944098E+12
 -------------------------------------------------------------------------------
 # multiplications                             58
 max memory usage/rank               1.640321E+09
 # max total images/rank                        2
 # max 3D layers                                1
 # MPI messages exchanged                  215296
 MPI messages size (bytes):
  total size                       136.891105E+09
  min size                         288.768000E+03
  max size                           2.222232E+06
  average size                     635.827438E+03
 MPI breakdown and total messages size (bytes):
             size <=      128                   0                        0
       128 < size <=     8192                   0                        0
      8192 < size <=    32768                   0                        0
     32768 < size <=   131072                   0                        0
    131072 < size <=  4194304              215296             136891100936
   4194304 < size <= 16777216                   0                        0
  16777216 < size                               0                        0
 -------------------------------------------------------------------------------

 *** WARNING in dbcsr_mm.F:290 :: Using a non-square number of MPI ranks ***
 *** might lead to poor performance. Used ranks: 128 Suggested: 121 256  ***

 -------------------------------------------------------------------------------
 -                                                                             -
 -                      DBCSR MESSAGE PASSING PERFORMANCE                      -
 -                                                                             -
 -------------------------------------------------------------------------------
 ROUTINE             CALLS      AVE VOLUME [Bytes]
 MP_Bcast               28                     12.
 MP_Allreduce          473                     11.
 MP_Alltoall          1617                 586024.
 MP_ISend             3712                 300010.
 MP_IRecv             3712                 293511.
 -------------------------------------------------------------------------------

 -------------------------------------------------------------------------------
 -                                                                             -
 -                                DBM STATISTICS                               -
 -                                                                             -
 -------------------------------------------------------------------------------
    M  x    N  x    K                                          COUNT     PERCENT
 -------------------------------------------------------------------------------

 -------------------------------------------------------------------------------
 -                                                                             -
 -                                GRID STATISTICS                              -
 -                                                                             -
 -------------------------------------------------------------------------------
 LP    KERNEL             BACKEND                              COUNT     PERCENT
 4     collocate general  REF                               22745240      21.98%
 4     integrate general  REF                               22624011      21.86%
 3     collocate general  REF                               15956416      15.42%
 3     integrate general  REF                               15902029      15.37%
 2     collocate general  REF                               12910744      12.48%
 2     integrate general  REF                               12680195      12.25%
 5     integrate general  REF                                 406165       0.39%
 0     collocate general  REF                                 132864       0.13%
 0     integrate general  REF                                  66432       0.06%
 1     integrate general  REF                                  66432       0.06%
 -------------------------------------------------------------------------------

 MEMORY| Estimated peak process memory [MiB]                                1827

 -------------------------------------------------------------------------------
 ----                             MULTIGRID INFO                            ----
 -------------------------------------------------------------------------------
 count for grid        1:        1098236          cutoff [a.u.]          200.00
 count for grid        2:        1093060          cutoff [a.u.]           66.67
 count for grid        3:         718380          cutoff [a.u.]           22.22
 count for grid        4:         557347          cutoff [a.u.]            7.41
 total gridlevel count  :        3467023

 -------------------------------------------------------------------------------
 -                                                                             -
 -                         MESSAGE PASSING PERFORMANCE                         -
 -                                                                             -
 -------------------------------------------------------------------------------

 ROUTINE             CALLS      AVE VOLUME [Bytes]
 MP_Group                4
 MP_Bcast             2264                 298711.
 MP_Allreduce         3829                  28489.
 MP_Sync               118
 MP_Alltoall          3342               16999282.
 MP_SendRecv           508                   6009.
 MP_ISendRecv        28448                  61740.
 MP_Wait             50180
 MP_comm_split          57
 MP_ISend            20480                 256215.
 MP_IRecv            20480                 256215.
 MP_Recv               183                1700608.
 MP_Write_All            3                1797408.
 -------------------------------------------------------------------------------


 -------------------------------------------------------------------------------
 -                                                                             -
 -                           R E F E R E N C E S                               -
 -                                                                             -
 -------------------------------------------------------------------------------
 
 CP2K version 2022.1, the CP2K developers group (2022).
 CP2K is freely available from https://www.cp2k.org/ .

 Kuehne,Thomas D.; Iannuzzi,Marcella; Del Ben,Mauro;
 Rybkin,Vladimir V.; Seewald,Patrick; Stein,Frederick; Laino,Teodoro;
 Khaliullin,Rustam Z.; Schuett,Ole; Schiffmann,Florian; Golze,Dorothea;
 Wilhelm,Jan; Chulkov,Sergey; Bani-Hashemian,Mohammad Hossein;
 Weber,Valery; Borstnik,Urban; Taillefumier,Mathieu;
 Jakobovits,Alice Shoshana; Lazzaro,Alfio; Pabst,Hans; Mueller,Tiziano;
 Schade,Robert; Guidon,Manuel; Andermatt,Samuel; Holmberg,Nico;
 Schenter,Gregory K.; Hehn,Anna; Bussy,Augustin; Belleflamme,Fabian;
 Tabacchi,Gloria; Gloess,Andreas; Lass,Michael; Bethune,Iain;
 Mundy,Christopher J.; Plessl,Christian; Watkins,Matt;
 VandeVondele,Joost; Krack,Matthias; Hutter,Juerg. 
 The Journal of Chemical Physics, 152 (19), (2020). 
 CP2K: An electronic structure and molecular dynamics software package -
 Quickstep: Efficient and accurate electronic structure calculations.
 https://doi.org/10.1063/5.0007045

 Goerigk, Lars; Hansen, Andreas; Bauer, Christoph; Ehrlich, Stephan;
 Najibi, Asim; Grimme, Stefan. , 19 (48), (2017). 
 A look at the density functional theory zoo with the advanced GMTKN55 database
 for general main group thermochemistry, kinetics and noncovalent interactions.
 https://doi.org/10.1039/C7CP04913G

 Bani-Hashemian, MH; Bruck, S; Luisier, M; VandeVondele, J. 
 JOURNAL OF CHEMICAL PHYSICS, 144 (4), 044113 (2016). 
 A generalized Poisson solver for first-principles device simulations.
 https://doi.org/10.1063/1.4940796

 Schuett, Ole; Messmer, Peter; Hutter, Juerg; VandeVondele, Joost. 
 Electronic Structure Calculations on Graphics Processing Units, John
 Wiley & Sons, Ltd, 173-190 (2016). 
 GPU-Accelerated Sparse Matrix-Matrix Multiplication for
 Linear Scaling Density Functional Theory.
 https://doi.org/10.1002/9781118670712.ch8

 Heinecke, A; Henry, G; Hutchinson, M; Pabst, H. 
 Proceedings of Intl. Supercomputing Conference, 981-991 (2016). 
 LIBXSMM: Accelerating Small Matrix Multiplications
 by Runtime Code Generation.
 https://doi.org/10.1109/SC.2016.83

 Borstnik, U; VandeVondele, J; Weber, V; Hutter, J. 
 PARALLEL COMPUTING, 40 (5-6), 47-58 (2014). 
 Sparse matrix multiplication: The distributed block-compressed sparse
 row library.
 https://doi.org/10.1016/j.parco.2014.03.012

 Hutter, J; Iannuzzi, M; Schiffmann, F; VandeVondele, J. 
 WIREs Comput Mol Sci., 4 (1), 15-25 (2014). 
 CP2K: atomistic simulations of condensed matter systems.
 https://doi.org/10.1002/wcms.1159

 Marek, A; Blum, V; Johanni, R; Havu, V; Lang, B; Auckenthaler, T;
 Heinecke, A; Bungartz, H; Lederer, H. 
 Journal of Physics: Condensed Matter, 26 (21), (2014). 
 The ELPA library: scalable parallel eigenvalue solutions for
 electronic structure
 theory and computational science.
 https://doi.org/10.1088/0953-8984/26/21/213201

 Grimme, S; Ehrlich, S; Goerigk, L. 
 JOURNAL OF COMPUTATIONAL CHEMISTRY, 32, 1456 (2011). 
 Effect of the damping function in dispersion corrected density functional theory.
 https://doi.org/10.1002/jcc.21759

 Grimme, S; Antony, J; Ehrlich, S; Krieg, H. 
 JOURNAL OF CHEMICAL PHYSICS, 132 (15), 154104 (2010). 
 A consistent and accurate ab initio parametrization of density
 functional dispersion correction (DFT-D) for the 94 elements H-Pu.
 https://doi.org/10.1063/1.3382344

 VandeVondele, J; Hutter, J. 
 JOURNAL OF CHEMICAL PHYSICS, 127 (11), 114105 (2007). 
 Gaussian basis sets for accurate calculations on molecular systems in
 gas and condensed phases.
 https://doi.org/10.1063/1.2770708

 Krack, M. 
 THEORETICAL CHEMISTRY ACCOUNTS, 114 (1-3), 145-152 (2005). 
 Pseudopotentials for H to Kr optimized for gradient-corrected
 exchange-correlation functionals.
 https://doi.org/10.1007/s00214-005-0655-y

 VandeVondele, J; Krack, M; Mohamed, F; Parrinello, M; Chassaing, T;
 Hutter, J. COMPUTER PHYSICS COMMUNICATIONS, 167 (2), 103-128 (2005). 
 QUICKSTEP: Fast and accurate density functional calculations using a
 mixed Gaussian and plane waves approach.
 https://doi.org/10.1016/j.cpc.2004.12.014

 Frigo, M; Johnson, SG. 
 PROCEEDINGS OF THE IEEE, 93 (2), 216-231 (2005). 
 The design and implementation of FFTW3.
 https://doi.org/10.1109/JPROC.2004.840301

 Hartwigsen, C; Goedecker, S; Hutter, J. 
 PHYSICAL REVIEW B, 58 (7), 3641-3662 (1998). 
 Relativistic separable dual-space Gaussian pseudopotentials from H to Rn.
 https://doi.org/10.1103/PhysRevB.58.3641

 Lippert, G; Hutter, J; Parrinello, M. 
 MOLECULAR PHYSICS, 92 (3), 477-487 (1997). 
 A hybrid Gaussian and plane wave density functional scheme.
 https://doi.org/10.1080/002689797170220

 Perdew, JP; Burke, K; Ernzerhof, M. 
 PHYSICAL REVIEW LETTERS, 77 (18), 3865-3868 (1996). 
 Generalized gradient approximation made simple.
 https://doi.org/10.1103/PhysRevLett.77.3865

 Goedecker, S; Teter, M; Hutter, J. 
 PHYSICAL REVIEW B, 54 (3), 1703-1710 (1996). 
 Separable dual-space Gaussian pseudopotentials.
 https://doi.org/10.1103/PhysRevB.54.1703


 -------------------------------------------------------------------------------
 -                                                                             -
 -                                T I M I N G                                  -
 -                                                                             -
 -------------------------------------------------------------------------------
 SUBROUTINE                       CALLS  ASD         SELF TIME        TOTAL TIME
                                MAXIMUM       AVERAGE  MAXIMUM  AVERAGE  MAXIMUM
 CP2K                                 1  1.0    0.027    0.038  389.473  389.475
 qs_forces                            1  2.0    0.002    0.002  389.031  389.032
 qs_energies                          1  3.0    0.000    0.001  382.852  382.858
 scf_env_do_scf                       1  4.0    0.000    0.001  373.864  374.007
 scf_env_do_scf_inner_loop           55  5.0    0.003    0.006  373.861  374.003
 rebuild_ks_matrix                   56  6.9    0.000    0.000  198.397  198.442
 qs_ks_build_kohn_sham_matrix        56  7.9    0.008    0.009  198.396  198.442
 qs_ks_update_qs_env                 55  6.0    0.000    0.001  194.400  194.445
 pw_transfer                       2876 12.2    0.209    0.268  124.163  126.704
 fft_wrap_pw1pw2                   2876 13.2    0.027    0.040  123.953  126.445
 fft_wrap_pw1pw2_200               2540 14.4    8.436   10.028  122.322  124.742
 qs_scf_new_mos                      55  6.0    0.002    0.008  108.493  108.616
 pw_poisson_solve                    56  8.9    0.006    0.015  106.505  106.550
 fft3d_ps                          2876 15.2   36.015   39.761   99.467  103.358
 eigensolver                         55  7.0    0.004    0.007  102.305  102.637
 implicit_poisson_solver_mixed_      56  9.9    2.252    2.743  100.858  100.930
 cp_fm_diag_elpa                     57  8.0    0.001    0.001   71.359   71.547
 derive_fft                         328 12.1    0.021    0.026   70.663   70.866
 cp_fm_redistribute_end              57  9.0    9.414   70.719    9.525   70.784
 cp_fm_diag_elpa_base                57  9.0   60.339   69.189   60.918   69.791
 mp_alltoall_z22v                  2876 17.2   52.990   65.607   52.990   65.607
 qs_rho_update_rho_low               56  6.0    0.000    0.000   62.232   62.254
 calculate_rho_elec                  56  7.0    0.108    0.135   62.232   62.253
 sum_up_and_integrate                56  8.9    0.304    0.367   61.132   61.183
 integrate_v_rspace                  56  9.9    0.002    0.003   60.827   60.966
 apply_P_operator                   272 11.2    1.448    1.603   60.073   60.248
 grid_collocate_task_list            56  8.0   40.979   49.117   40.979   49.117
 grid_integrate_task_list            56 10.9   38.018   44.518   38.018   44.518
 x_to_yz                           1653 16.4    7.016    8.920   39.860   41.478
 cp_fm_triangular_multiply          165  8.0   32.259   32.595   32.259   32.595
 rs_pw_transfer                     452 10.4    0.005    0.006   26.495   32.240
 yz_to_x                            887 16.4    2.422    2.809   22.360   30.576
 qs_vxc_create                       56  8.9    0.002    0.002   27.577   27.924
 xc_vxc_pw_create                    56  9.9    0.478    0.587   27.576   27.923
 density_rs2pw                       56  8.0    0.004    0.004   19.936   25.908
 xc_pw_derive                       336 11.9    0.005    0.006   19.418   21.545
 apply_poisson_operator_fft          56 10.9    0.001    0.001   17.999   18.300
 rs_pw_transfer_RS2PW_200            58  9.9    3.834    4.279   11.454   17.192
 apply_inv_laplace_operator_fft     166 11.6    0.412    0.474   16.208   16.784
 mp_waitany                       20480 12.4   11.244   16.757   11.244   16.757
 potential_pw2rs                     56 10.9    0.017    0.018   15.740   15.858
 xc_pw_divergence                    56 10.9    0.003    0.003   13.138   14.732
 xc_rho_set_and_dset_create          56 10.9    0.278    0.329   13.452   14.256
 mp_alltoall_d11v                   806 10.3    8.780   13.850    8.780   13.850
 ps_implicit_compute_error_fft      108 10.9    0.679    0.823   11.754   12.595
 ps_implicit_compute_veps            56 10.9    0.324    0.382   12.366   12.574
 rs_gather_matrices                  56 10.9    0.068    0.085    7.056   12.145
 pw_scatter_p                      1821 15.4   10.197   12.133   10.197   12.133
 gspace_mixing                       54  6.0    0.103    0.128    9.488    9.503
 rs_pw_transfer_PW2RS_200            58 12.8    4.382    4.581    9.109    9.302
 pw_derive                         1320 13.1    8.387    8.869    8.387    8.869
 -------------------------------------------------------------------------------

 The number of warnings for this run is : 1
 
 -------------------------------------------------------------------------------
  **** **** ******  **  PROGRAM ENDED AT                 2023-12-02 03:25:38.392
 ***** ** ***  *** **   PROGRAM RAN ON                                     cu001
 **    ****   ******    PROGRAM RAN BY                                     jxzhu
 ***** **    ** ** **   PROGRAM PROCESS ID                                 36066
  **** **  *******  **  PROGRAM STOPPED IN /public/home/jxzhu/tmp_calc/bb0b18d0e
                                           001213d4c567376841c311577b219c3/calc/
                                           000500.000/task_hi.000001
