 DBCSR| CPU Multiplication driver                                           XSMM
 DBCSR| Multrec recursion limit                                              512
 DBCSR| Multiplication stack size                                           1000
 DBCSR| Maximum elements for images                                    UNLIMITED
 DBCSR| Multiplicative factor virtual images                                   1
 DBCSR| Use multiplication densification                                       T
 DBCSR| Multiplication size stacks                                             3
 DBCSR| Use memory pool for CPU allocation                                     F
 DBCSR| Number of 3D layers                                               SINGLE
 DBCSR| Use MPI memory allocation                                              F
 DBCSR| Use RMA algorithm                                                      F
 DBCSR| Use Communication thread                                               T
 DBCSR| Communication thread load                                             87
 DBCSR| MPI: My node id                                                        0
 DBCSR| MPI: Number of nodes                                                 128
 DBCSR| OMP: Current number of threads                                         1
 DBCSR| OMP: Max number of threads                                             1
 DBCSR| Split modifier for TAS multiplication algorithm                  1.0E+00


  **** **** ******  **  PROGRAM STARTED AT               2023-12-02 11:16:47.088
 ***** ** ***  *** **   PROGRAM STARTED ON                                 cu001
 **    ****   ******    PROGRAM STARTED BY                                 jxzhu
 ***** **    ** ** **   PROGRAM PROCESS ID                                  4337
  **** **  *******  **  PROGRAM STARTED IN /public/home/jxzhu/tmp_calc/8660927bb
                                           647ad1fb0be8b4888b82a052431eefb/calc/
                                           001400.000/search_lo.000000

 CP2K| version string:                                       CP2K version 2022.1
 CP2K| source code revision number:                                  git:2caeb6f
 CP2K| cp2kflags: omp libint fftw3 libxc elpa parallel mpi3 scalapack cosma xsmm
 CP2K|             plumed2 spglib mkl sirius libvori libbqb
 CP2K| is freely available from                            https://www.cp2k.org/
 CP2K| Program compiled at                           Mon Jul 3 17:37:06 CST 2023
 CP2K| Program compiled on                                                 mu003
 CP2K| Program compiled for                                                local
 CP2K| Data directory path                             /public/home/jxzhu/basis/
 CP2K| Input file name                                                 input.inp
 
 GLOBAL| Force Environment number                                              1
 GLOBAL| Basis set file name                                        BASIS_MOLOPT
 GLOBAL| Potential file name                                      GTH_POTENTIALS
 GLOBAL| MM Potential file name                                     MM_POTENTIAL
 GLOBAL| Coordinate file name                                          coord.xyz
 GLOBAL| Method name                                                        CP2K
 GLOBAL| Project name                                                       cp2k
 GLOBAL| Run type                                                   ENERGY_FORCE
 GLOBAL| FFT library                                                       FFTW3
 GLOBAL| Diagonalization library                                            ELPA
 GLOBAL| Minimum number of eigenvectors for ELPA usage                        16
 GLOBAL| Orthonormality check for eigenvectors                          DISABLED
 GLOBAL| Matrix multiplication library                                     COSMA
 GLOBAL| All-to-all communication in single precision                          F
 GLOBAL| FFTs using library dependent lengths                                  T
 GLOBAL| Grid backend                                                       AUTO
 GLOBAL| Global print level                                               MEDIUM
 GLOBAL| MPI I/O enabled                                                       T
 GLOBAL| Total number of message passing processes                           128
 GLOBAL| Number of threads for this process                                    1
 GLOBAL| This output is from process                                           0
 GLOBAL| Stack size for threads created by OpenMP (OMP_STACKSIZE)        default
 GLOBAL| CPU model name                 Intel(R) Xeon(R) Gold 6338 CPU @ 2.00GHz
 GLOBAL| CPUID                                                              1003

 MEMORY| system memory details [Kb]
 MEMORY|                        rank 0           min           max       average
 MEMORY| MemTotal            263619172     263619172     263619172     263619172
 MEMORY| MemFree             218891248     216062948     218891868     217477233
 MEMORY| Buffers                    20            20            36            28
 MEMORY| Cached                1745352        836544       1745352       1290948
 MEMORY| Slab                  1414732       1414732       1427368       1421050
 MEMORY| SReclaimable           245672        229900        245672        237786
 MEMORY| MemLikelyFree       220882292     217129428     220882912     219005995


 *** Fundamental physical constants (SI units) ***

 *** Literature: B. J. Mohr and B. N. Taylor,
 ***             CODATA recommended values of the fundamental physical
 ***             constants: 2006, Web Version 5.1
 ***             http://physics.nist.gov/constants

 Speed of light in vacuum [m/s]                             2.99792458000000E+08
 Magnetic constant or permeability of vacuum [N/A**2]       1.25663706143592E-06
 Electric constant or permittivity of vacuum [F/m]          8.85418781762039E-12
 Planck constant (h) [J*s]                                  6.62606896000000E-34
 Planck constant (h-bar) [J*s]                              1.05457162825177E-34
 Elementary charge [C]                                      1.60217648700000E-19
 Electron mass [kg]                                         9.10938215000000E-31
 Electron g factor [ ]                                     -2.00231930436220E+00
 Proton mass [kg]                                           1.67262163700000E-27
 Fine-structure constant                                    7.29735253760000E-03
 Rydberg constant [1/m]                                     1.09737315685270E+07
 Avogadro constant [1/mol]                                  6.02214179000000E+23
 Boltzmann constant [J/K]                                   1.38065040000000E-23
 Atomic mass unit [kg]                                      1.66053878200000E-27
 Bohr radius [m]                                            5.29177208590000E-11

 *** Conversion factors ***

 [u] -> [a.u.]                                              1.82288848426455E+03
 [Angstrom] -> [Bohr] = [a.u.]                              1.88972613288564E+00
 [a.u.] = [Bohr] -> [Angstrom]                              5.29177208590000E-01
 [a.u.] -> [s]                                              2.41888432650478E-17
 [a.u.] -> [fs]                                             2.41888432650478E-02
 [a.u.] -> [J]                                              4.35974393937059E-18
 [a.u.] -> [N]                                              8.23872205491840E-08
 [a.u.] -> [K]                                              3.15774647902944E+05
 [a.u.] -> [kJ/mol]                                         2.62549961709828E+03
 [a.u.] -> [kcal/mol]                                       6.27509468713739E+02
 [a.u.] -> [Pa]                                             2.94210107994716E+13
 [a.u.] -> [bar]                                            2.94210107994716E+08
 [a.u.] -> [atm]                                            2.90362800883016E+08
 [a.u.] -> [eV]                                             2.72113838565563E+01
 [a.u.] -> [Hz]                                             6.57968392072181E+15
 [a.u.] -> [1/cm] (wave numbers)                            2.19474631370540E+05
 [a.u./Bohr**2] -> [1/cm]                                   5.14048714338585E+03
 

 CELL_TOP| Volume [angstrom^3]:                                     17614.982639
 CELL_TOP| Vector a [angstrom    16.869     0.000     0.000   |a| =    16.869000
 CELL_TOP| Vector b [angstrom    -8.434    14.609     0.000   |b| =    16.869015
 CELL_TOP| Vector c [angstrom     0.000     0.000    71.478   |c| =    71.478000
 CELL_TOP| Angle (b,c), alpha [degree]:                                90.000000
 CELL_TOP| Angle (a,c), beta  [degree]:                                90.000000
 CELL_TOP| Angle (a,b), gamma [degree]:                               119.999970
 CELL_TOP| Numerically orthorhombic:                                          NO
 
 GENERATE|  Preliminary Number of Bonds generated:                             0
 GENERATE|  Achieved consistency in connectivity generation.

 CELL| Volume [angstrom^3]:                                         17614.982639
 CELL| Vector a [angstrom]:      16.869     0.000     0.000   |a| =    16.869000
 CELL| Vector b [angstrom]:      -8.434    14.609     0.000   |b| =    16.869015
 CELL| Vector c [angstrom]:       0.000     0.000    71.478   |c| =    71.478000
 CELL| Angle (b,c), alpha [degree]:                                    90.000000
 CELL| Angle (a,c), beta  [degree]:                                    90.000000
 CELL| Angle (a,b), gamma [degree]:                                   119.999970
 CELL| Numerically orthorhombic:                                              NO

 CELL_REF| Volume [angstrom^3]:                                     17614.982639
 CELL_REF| Vector a [angstrom    16.869     0.000     0.000   |a| =    16.869000
 CELL_REF| Vector b [angstrom    -8.434    14.609     0.000   |b| =    16.869015
 CELL_REF| Vector c [angstrom     0.000     0.000    71.478   |c| =    71.478000
 CELL_REF| Angle (b,c), alpha [degree]:                                90.000000
 CELL_REF| Angle (a,c), beta  [degree]:                                90.000000
 CELL_REF| Angle (a,b), gamma [degree]:                               119.999970
 CELL_REF| Numerically orthorhombic:                                          NO

 *******************************************************************************
 *******************************************************************************
 **                                                                           **
 **     #####                         ##              ##                      **
 **    ##   ##            ##          ##              ##                      **
 **   ##     ##                       ##            ######                    **
 **   ##     ##  ##   ##  ##   #####  ##  ##   ####   ##    #####    #####    **
 **   ##     ##  ##   ##  ##  ##      ## ##   ##      ##   ##   ##  ##   ##   **
 **   ##  ## ##  ##   ##  ##  ##      ####     ###    ##   ######   ######    **
 **    ##  ###   ##   ##  ##  ##      ## ##      ##   ##   ##       ##        **
 **     #######   #####   ##   #####  ##  ##  ####    ##    #####   ##        **
 **           ##                                                    ##        **
 **                                                                           **
 **                                                ... make the atoms dance   **
 **                                                                           **
 **            Copyright (C) by CP2K developers group (2000-2022)             **
 **                      J. Chem. Phys. 152, 194103 (2020)                    **
 **                                                                           **
 *******************************************************************************

 DFT| Spin restricted Kohn-Sham (RKS) calculation                            RKS
 DFT| Multiplicity                                                             1
 DFT| Number of spin states                                                    1
 DFT| Charge                                                                   0
 DFT| Self-interaction correction (SIC)                                       NO
 DFT| Cutoffs: density                                              1.000000E-10
 DFT|          gradient                                             1.000000E-10
 DFT|          tau                                                  1.000000E-10
 DFT|          cutoff_smoothing_range                               0.000000E+00
 DFT| XC density smoothing                                                  NONE
 DFT| XC derivatives                                                          PW

 FUNCTIONAL| PBE:
 FUNCTIONAL| J.P.Perdew, K.Burke, M.Ernzerhof, Phys. Rev. Letter, vol. 77, n 18,
 FUNCTIONAL|  pp. 3865-3868, (1996){spin unpolarized}                           

 vdW POTENTIAL|                                                   Pair Potential
 vdW POTENTIAL|          DFT-D3 (Version 3.1)
 vdW POTENTIAL|          Potential Form: S. Grimme et al, JCP 132: 154104 (2010)
 vdW POTENTIAL|          Zero Damping
 vdW POTENTIAL|          Cutoff Radius [Bohr]:                             20.00
 vdW POTENTIAL|          s6 Scaling Factor:                               1.0000
 vdW POTENTIAL|          sr6 Scaling Factor:                              1.2170
 vdW POTENTIAL|          s8 Scaling Factor:                               0.7220
 vdW POTENTIAL|          Cutoff for CN calculation:                   0.1000E-05

 QS| Method:                                                                 GPW
 QS| Density plane wave grid type                        NON-SPHERICAL FULLSPACE
 QS| Number of grid levels:                                                    4
 QS| Density cutoff [a.u.]:                                                200.0
 QS| Multi grid cutoff [a.u.]: 1) grid level                               200.0
 QS|                           2) grid level                                66.7
 QS|                           3) grid level                                22.2
 QS|                           4) grid level                                 7.4
 QS| Grid level progression factor:                                          3.0
 QS| Relative density cutoff [a.u.]:                                        20.0
 QS| Interaction thresholds: eps_pgf_orb:                                3.2E-07
 QS|                         eps_filter_matrix:                          0.0E+00
 QS|                         eps_core_charge:                            1.0E-15
 QS|                         eps_rho_gspace:                             1.0E-13
 QS|                         eps_rho_rspace:                             1.0E-13
 QS|                         eps_gvg_rspace:                             3.2E-07
 QS|                         eps_ppl:                                    1.0E-02
 QS|                         eps_ppnl:                                   3.2E-09


 ATOMIC KIND INFORMATION

  1. Atomic kind: O                                     Number of atoms:      97

     Orbital Basis Set                                        DZVP-MOLOPT-SR-GTH

       Number of orbital shell sets:                                           1
       Number of orbital shells:                                               5
       Number of primitive Cartesian functions:                                5
       Number of Cartesian basis functions:                                   14
       Number of spherical basis functions:                                   13
       Norm type:                                                              2

       Normalised Cartesian orbitals:

                        Set   Shell   Orbital            Exponent    Coefficient

                          1       1    2s               10.389228       0.396646
                                                         3.849621       0.208811
                                                         1.388401      -0.301641
                                                         0.496955      -0.274061
                                                         0.162492      -0.033677

                          1       2    3s               10.389228       0.303673
                                                         3.849621       0.240943
                                                         1.388401      -0.313066
                                                         0.496955      -0.043055
                                                         0.162492       0.213991

                          1       3    3px              10.389228      -1.530415
                                                         3.849621      -1.371928
                                                         1.388401      -0.761951
                                                         0.496955      -0.253695
                                                         0.162492      -0.035541
                          1       3    3py              10.389228      -1.530415
                                                         3.849621      -1.371928
                                                         1.388401      -0.761951
                                                         0.496955      -0.253695
                                                         0.162492      -0.035541
                          1       3    3pz              10.389228      -1.530415
                                                         3.849621      -1.371928
                                                         1.388401      -0.761951
                                                         0.496955      -0.253695
                                                         0.162492      -0.035541

                          1       4    4px              10.389228      -0.565392
                                                         3.849621      -0.038231
                                                         1.388401      -0.382373
                                                         0.496955       0.179070
                                                         0.162492       0.122714
                          1       4    4py              10.389228      -0.565392
                                                         3.849621      -0.038231
                                                         1.388401      -0.382373
                                                         0.496955       0.179070
                                                         0.162492       0.122714
                          1       4    4pz              10.389228      -0.565392
                                                         3.849621      -0.038231
                                                         1.388401      -0.382373
                                                         0.496955       0.179070
                                                         0.162492       0.122714

                          1       5    4dx2             10.389228       1.867377
                                                         3.849621       0.670994
                                                         1.388401       1.353441
                                                         0.496955       0.273538
                                                         0.162492       0.006620
                          1       5    4dxy             10.389228       3.234392
                                                         3.849621       1.162195
                                                         1.388401       2.344229
                                                         0.496955       0.473781
                                                         0.162492       0.011466
                          1       5    4dxz             10.389228       3.234392
                                                         3.849621       1.162195
                                                         1.388401       2.344229
                                                         0.496955       0.473781
                                                         0.162492       0.011466
                          1       5    4dy2             10.389228       1.867377
                                                         3.849621       0.670994
                                                         1.388401       1.353441
                                                         0.496955       0.273538
                                                         0.162492       0.006620
                          1       5    4dyz             10.389228       3.234392
                                                         3.849621       1.162195
                                                         1.388401       2.344229
                                                         0.496955       0.473781
                                                         0.162492       0.011466
                          1       5    4dz2             10.389228       1.867377
                                                         3.849621       0.670994
                                                         1.388401       1.353441
                                                         0.496955       0.273538
                                                         0.162492       0.006620

       Atomic covalent radius [Angstrom]:                                  0.730

       Atomic van der Waals radius [Angstrom]:                             1.520

     GTH Potential information for                                    GTH-PBE-q6

       Description:                       Goedecker-Teter-Hutter pseudopotential
                                           Goedecker et al., PRB 54, 1703 (1996)
                                          Hartwigsen et al., PRB 58, 3641 (1998)
                                                      Krack, TCA 114, 145 (2005)

       Gaussian exponent of the core charge distribution:               8.360253
       Electronic configuration (s p d ...):                               2   4

       Parameters of the local part of the GTH pseudopotential:

                          rloc        C1          C2          C3          C4
                        0.244554  -16.667215    2.487311

       Parameters of the non-local part of the GTH pseudopotential:

                   l      r(l)      h(i,j,l)

                   0    0.220956   18.337458
                   1    0.211332

  2. Atomic kind: H                                     Number of atoms:     194

     Orbital Basis Set                                        DZVP-MOLOPT-SR-GTH

       Number of orbital shell sets:                                           1
       Number of orbital shells:                                               3
       Number of primitive Cartesian functions:                                5
       Number of Cartesian basis functions:                                    5
       Number of spherical basis functions:                                    5
       Norm type:                                                              2

       Normalised Cartesian orbitals:

                        Set   Shell   Orbital            Exponent    Coefficient

                          1       1    2s               10.068468      -0.133023
                                                         2.680223      -0.177618
                                                         0.791502      -0.258419
                                                         0.239116      -0.107525
                                                         0.082193      -0.014019

                          1       2    3s               10.068468       0.344673
                                                         2.680223       1.819821
                                                         0.791502      -0.999069
                                                         0.239116       0.017430
                                                         0.082193       0.082660

                          1       3    3px              10.068468       0.155326
                                                         2.680223       0.367157
                                                         0.791502       0.311480
                                                         0.239116       0.080105
                                                         0.082193       0.033440
                          1       3    3py              10.068468       0.155326
                                                         2.680223       0.367157
                                                         0.791502       0.311480
                                                         0.239116       0.080105
                                                         0.082193       0.033440
                          1       3    3pz              10.068468       0.155326
                                                         2.680223       0.367157
                                                         0.791502       0.311480
                                                         0.239116       0.080105
                                                         0.082193       0.033440

       Atomic covalent radius [Angstrom]:                                  0.320

       Atomic van der Waals radius [Angstrom]:                             1.090

     GTH Potential information for                                    GTH-PBE-q1

       Description:                       Goedecker-Teter-Hutter pseudopotential
                                           Goedecker et al., PRB 54, 1703 (1996)
                                          Hartwigsen et al., PRB 58, 3641 (1998)
                                                      Krack, TCA 114, 145 (2005)

       Gaussian exponent of the core charge distribution:              12.500000
       Electronic configuration (s p d ...):                                   1

       Parameters of the local part of the GTH pseudopotential:

                          rloc        C1          C2          C3          C4
                        0.200000   -4.178900    0.724463

  3. Atomic kind: Pt                                    Number of atoms:     216

     Orbital Basis Set                      DZVP-A5-Q10-323-MOL-T1-DERIVED_SET-1

       Number of orbital shell sets:                                           1
       Number of orbital shells:                                               6
       Number of primitive Cartesian functions:                                5
       Number of Cartesian basis functions:                                   23
       Number of spherical basis functions:                                   20
       Norm type:                                                              2

       Normalised Cartesian orbitals:

                        Set   Shell   Orbital            Exponent    Coefficient

                          1       1    2s                2.521825       0.177473
                                                         1.453920      -0.063399
                                                         0.614053      -0.407089
                                                         0.232656       0.262254
                                                         0.074788       0.047371

                          1       2    3s                2.521825      -0.049056
                                                         1.453920       0.044904
                                                         0.614053      -0.009756
                                                         0.232656      -0.144709
                                                         0.074788       0.144085

                          1       3    3px               2.521825      -0.317572
                                                         1.453920       0.534826
                                                         0.614053      -0.489458
                                                         0.232656       0.245631
                                                         0.074788       0.018221
                          1       3    3py               2.521825      -0.317572
                                                         1.453920       0.534826
                                                         0.614053      -0.489458
                                                         0.232656       0.245631
                                                         0.074788       0.018221
                          1       3    3pz               2.521825      -0.317572
                                                         1.453920       0.534826
                                                         0.614053      -0.489458
                                                         0.232656       0.245631
                                                         0.074788       0.018221

                          1       4    4dx2              2.521825       3.008522
                                                         1.453920      -1.224251
                                                         0.614053       0.225691
                                                         0.232656       0.125144
                                                         0.074788      -0.015348
                          1       4    4dxy              2.521825       5.210912
                                                         1.453920      -2.120465
                                                         0.614053       0.390909
                                                         0.232656       0.216756
                                                         0.074788      -0.026584
                          1       4    4dxz              2.521825       5.210912
                                                         1.453920      -2.120465
                                                         0.614053       0.390909
                                                         0.232656       0.216756
                                                         0.074788      -0.026584
                          1       4    4dy2              2.521825       3.008522
                                                         1.453920      -1.224251
                                                         0.614053       0.225691
                                                         0.232656       0.125144
                                                         0.074788      -0.015348
                          1       4    4dyz              2.521825       5.210912
                                                         1.453920      -2.120465
                                                         0.614053       0.390909
                                                         0.232656       0.216756
                                                         0.074788      -0.026584
                          1       4    4dz2              2.521825       3.008522
                                                         1.453920      -1.224251
                                                         0.614053       0.225691
                                                         0.232656       0.125144
                                                         0.074788      -0.015348

                          1       5    5dx2              2.521825       0.698026
                                                         1.453920      -1.511486
                                                         0.614053      -0.335394
                                                         0.232656      -0.025564
                                                         0.074788      -0.002699
                          1       5    5dxy              2.521825       1.209017
                                                         1.453920      -2.617970
                                                         0.614053      -0.580920
                                                         0.232656      -0.044277
                                                         0.074788      -0.004674
                          1       5    5dxz              2.521825       1.209017
                                                         1.453920      -2.617970
                                                         0.614053      -0.580920
                                                         0.232656      -0.044277
                                                         0.074788      -0.004674
                          1       5    5dy2              2.521825       0.698026
                                                         1.453920      -1.511486
                                                         0.614053      -0.335394
                                                         0.232656      -0.025564
                                                         0.074788      -0.002699
                          1       5    5dyz              2.521825       1.209017
                                                         1.453920      -2.617970
                                                         0.614053      -0.580920
                                                         0.232656      -0.044277
                                                         0.074788      -0.004674
                          1       5    5dz2              2.521825       0.698026
                                                         1.453920      -1.511486
                                                         0.614053      -0.335394
                                                         0.232656      -0.025564
                                                         0.074788      -0.002699

                          1       6    6dx2              2.521825       0.831079
                                                         1.453920      -0.709226
                                                         0.614053      -0.137351
                                                         0.232656       0.068642
                                                         0.074788       0.011745
                          1       6    6dxy              2.521825       1.439472
                                                         1.453920      -1.228415
                                                         0.614053      -0.237899
                                                         0.232656       0.118891
                                                         0.074788       0.020343
                          1       6    6dxz              2.521825       1.439472
                                                         1.453920      -1.228415
                                                         0.614053      -0.237899
                                                         0.232656       0.118891
                                                         0.074788       0.020343
                          1       6    6dy2              2.521825       0.831079
                                                         1.453920      -0.709226
                                                         0.614053      -0.137351
                                                         0.232656       0.068642
                                                         0.074788       0.011745
                          1       6    6dyz              2.521825       1.439472
                                                         1.453920      -1.228415
                                                         0.614053      -0.237899
                                                         0.232656       0.118891
                                                         0.074788       0.020343
                          1       6    6dz2              2.521825       0.831079
                                                         1.453920      -0.709226
                                                         0.614053      -0.137351
                                                         0.232656       0.068642
                                                         0.074788       0.011745

       Atomic covalent radius [Angstrom]:                                  1.300

       Atomic van der Waals radius [Angstrom]:                             1.750

     GTH Potential information for                                   GTH-PBE-q10

       Description:                       Goedecker-Teter-Hutter pseudopotential
                                           Goedecker et al., PRB 54, 1703 (1996)
                                          Hartwigsen et al., PRB 58, 3641 (1998)
                                                      Krack, TCA 114, 145 (2005)

       Gaussian exponent of the core charge distribution:               1.317676
       Electronic configuration (s p d ...):                           1   0   9

       Parameters of the local part of the GTH pseudopotential:

                          rloc        C1          C2          C3          C4
                        0.616000   11.313635

       Parameters of the non-local part of the GTH pseudopotential:

                   l      r(l)      h(i,j,l)

                   0    0.550904    4.733491   -1.784594
                                   -1.784594    2.303901
                   1    0.674138    2.534798   -1.778066
                                   -1.778066    2.103836
                   2    0.457392   -7.264011    2.558665
                                    2.558665   -2.901253


 MOLECULE KIND INFORMATION


 All atoms are their own molecule, skipping detailed information


 TOTAL NUMBERS AND MAXIMUM NUMBERS

  Total number of            - Atomic kinds:                                   3
                             - Atoms:                                        507
                             - Shell sets:                                   507
                             - Shells:                                      2363
                             - Primitive Cartesian functions:               2535
                             - Cartesian basis functions:                   7296
                             - Spherical basis functions:                   6551

  Maximum angular momentum of- Orbital basis functions:                        2
                             - Local part of the GTH pseudopotential:          2
                             - Non-local part of the GTH pseudopotential:      4


 MODULE QUICKSTEP:  ATOMIC COORDINATES IN angstrom

 Atom  Kind  Element       X           Y           Z          Z(eff)       Mass
    1   1 O    8      -1.120000   -8.560000   30.788000       6.0000     15.9994
    2   2 H    1      -1.640000   -9.330000   30.428001       1.0000      1.0079
    3   2 H    1      -1.640000   -7.770000   30.438001       1.0000      1.0079
    4   1 O    8       6.680000    8.490001   29.878002       6.0000     15.9994
    5   2 H    1       6.440001    8.200001   28.988001       1.0000      1.0079
    6   2 H    1       5.880000    9.010000   30.078001       1.0000      1.0079
    7   1 O    8      -7.920001   -9.470000   34.118001       6.0000     15.9994
    8   2 H    1      -7.400000  -10.200001   33.758001       1.0000      1.0079
    9   2 H    1      -7.490000   -9.190001   35.018001       1.0000      1.0079
   10   1 O    8       4.370000    6.960001   29.208001       6.0000     15.9994
   11   2 H    1       3.630000    6.380000   29.438001       1.0000      1.0079
   12   2 H    1       4.260000    7.840000   29.718001       1.0000      1.0079
   13   1 O    8       9.600000   -7.380000   32.728002       6.0000     15.9994
   14   2 H    1       9.120001   -7.410001   31.808002       1.0000      1.0079
   15   2 H    1       9.440001   -8.260000   33.168001       1.0000      1.0079
   16   1 O    8       1.350000   29.810001   34.398001       6.0000     15.9994
   17   2 H    1       2.090000   29.300001   33.978002       1.0000      1.0079
   18   2 H    1       0.520000   29.480001   34.068001       1.0000      1.0079
   19   1 O    8      -4.130000   34.389999   35.838002       6.0000     15.9994
   20   2 H    1      -4.640000   34.860001   35.158000       1.0000      1.0079
   21   2 H    1      -3.430000   33.920002   35.228002       1.0000      1.0079
   22   1 O    8      -0.090000   29.150002   29.328001       6.0000     15.9994
   23   2 H    1      -1.020000   29.580002   29.578000       1.0000      1.0079
   24   2 H    1       9.000000   15.250001   29.698001       1.0000      1.0079
   25   1 O    8      18.630001   17.570002   29.958001       6.0000     15.9994
   26   2 H    1      18.880001   16.980001   30.708001       1.0000      1.0079
   27   2 H    1      18.610001   18.440001   30.398001       1.0000      1.0079
   28   1 O    8      -6.490001   17.780001   32.978001       6.0000     15.9994
   29   2 H    1      -6.860001   16.990002   33.498000       1.0000      1.0079
   30   2 H    1      -6.670001   17.470001   32.098001       1.0000      1.0079
   31   1 O    8      26.700001  -12.740001   30.508001       6.0000     15.9994
   32   2 H    1      26.340000  -11.870001   30.168001       1.0000      1.0079
   33   2 H    1      44.529999  -12.530001   30.278001       1.0000      1.0079
   34   1 O    8       7.400000    2.230000   29.608001       6.0000     15.9994
   35   2 H    1      -1.050000   15.820000   29.688001       1.0000      1.0079
   36   2 H    1       8.370000    2.440000   29.628001       1.0000      1.0079
   37   1 O    8       1.190000   -6.330000   35.538001       6.0000     15.9994
   38   2 H    1       1.070000   -5.370000   35.398001       1.0000      1.0079
   39   2 H    1       1.890000   -6.380000   36.178002       1.0000      1.0079
   40   1 O    8      -4.620000   17.020000   29.128001       6.0000     15.9994
   41   2 H    1      -4.030000   17.780001   29.518001       1.0000      1.0079
   42   2 H    1      -4.180000   16.150002   29.328001       1.0000      1.0079
   43   1 O    8      18.070000   -0.760000   38.178001       6.0000     15.9994
   44   2 H    1       1.720000   -0.810000   39.008003       1.0000      1.0079
   45   2 H    1      18.290001    0.150000   37.758003       1.0000      1.0079
   46   1 O    8       7.480001   -6.540000   36.138001       6.0000     15.9994
   47   2 H    1       7.430000   -5.590000   36.418001       1.0000      1.0079
   48   2 H    1       7.330000   -6.560000   35.188001       1.0000      1.0079
   49   1 O    8     -25.610001  -10.580001   29.928001       6.0000     15.9994
   50   2 H    1     -25.980000   -9.730001   30.308001       1.0000      1.0079
   51   2 H    1     -25.990002  -10.610001   29.048002       1.0000      1.0079
   52   1 O    8      -3.010000    7.200000   29.958001       6.0000     15.9994
   53   2 H    1      -3.120000    7.150001   28.958001       1.0000      1.0079
   54   2 H    1      -3.780000    7.800000   30.148001       1.0000      1.0079
   55   1 O    8      24.280003   17.390001   36.748000       6.0000     15.9994
   56   2 H    1      24.300001   18.320002   37.238002       1.0000      1.0079
   57   2 H    1      23.990002   17.630001   35.838002       1.0000      1.0079
   58   1 O    8      10.910001   19.580000   29.938001       6.0000     15.9994
   59   2 H    1       9.950001   19.790001   29.978001       1.0000      1.0079
   60   2 H    1      11.070000   19.330002   28.988001       1.0000      1.0079
   61   1 O    8      13.300000   -5.700001   37.308002       6.0000     15.9994
   62   2 H    1      13.140000   -5.380001   38.238002       1.0000      1.0079
   63   2 H    1       4.400000    8.010000   37.248002       1.0000      1.0079
   64   1 O    8       0.320000   24.390001   29.088001       6.0000     15.9994
   65   2 H    1       0.410000   25.270002   29.608001       1.0000      1.0079
   66   2 H    1      -0.450000   23.890001   29.508001       1.0000      1.0079
   67   1 O    8      -0.080000    8.740000   39.878002       6.0000     15.9994
   68   2 H    1      -0.890000    8.120001   39.868001       1.0000      1.0079
   69   2 H    1       0.620000    8.160001   40.208001       1.0000      1.0079
   70   1 O    8     -19.130001   31.020002   32.848001       6.0000     15.9994
   71   2 H    1      -3.240000   30.740002   33.098001       1.0000      1.0079
   72   2 H    1     -18.680000   30.170002   33.078001       1.0000      1.0079
   73   1 O    8      -9.110001   19.820002   38.238002       6.0000     15.9994
   74   2 H    1      -8.930000   19.530001   39.108001       1.0000      1.0079
   75   2 H    1      -9.860001   20.520000   38.338001       1.0000      1.0079
   76   1 O    8       1.250000  -11.710000   34.248000       6.0000     15.9994
   77   2 H    1       2.100000  -11.220001   34.058002       1.0000      1.0079
   78   2 H    1       0.760000  -11.790000   33.408001       1.0000      1.0079
   79   1 O    8       0.920000   -2.340000   30.258001       6.0000     15.9994
   80   2 H    1       0.360000   -1.620000   29.868000       1.0000      1.0079
   81   2 H    1       1.000000   -2.290000   31.218002       1.0000      1.0079
   82   1 O    8       9.870001   -1.190000   38.088001       6.0000     15.9994
   83   2 H    1       9.720000   -2.060000   37.628002       1.0000      1.0079
   84   2 H    1      10.070001   -0.420000   37.478002       1.0000      1.0079
   85   1 O    8      -1.190000  -14.910001   30.238000       6.0000     15.9994
   86   2 H    1      -0.390000  -15.040001   30.958001       1.0000      1.0079
   87   2 H    1      -1.250000  -15.570001   29.488001       1.0000      1.0079
   88   1 O    8       7.350000   13.960000   33.538001       6.0000     15.9994
   89   2 H    1       6.970000   13.790001   34.408001       1.0000      1.0079
   90   2 H    1       7.130001   13.190001   32.968001       1.0000      1.0079
   91   1 O    8       6.180000   18.830002   34.378002       6.0000     15.9994
   92   2 H    1       6.130000   18.030001   33.798002       1.0000      1.0079
   93   2 H    1       7.030000   19.240002   34.208001       1.0000      1.0079
   94   1 O    8      20.250000   -2.210000   30.008001       6.0000     15.9994
   95   2 H    1      11.890000   12.410001   29.038000       1.0000      1.0079
   96   2 H    1      19.270000   -2.210000   30.108001       1.0000      1.0079
   97   1 O    8      10.770000    6.670001   39.448001       6.0000     15.9994
   98   2 H    1       9.960001    7.170000   39.758001       1.0000      1.0079
   99   2 H    1      11.090001    7.300000   38.728002       1.0000      1.0079
  100   1 O    8       3.600000   37.860001   32.598001       6.0000     15.9994
  101   2 H    1       2.750000   37.370003   32.448001       1.0000      1.0079
  102   2 H    1      21.090002   37.170002   32.798002       1.0000      1.0079
  103   1 O    8       4.410000    0.300000   30.678001       6.0000     15.9994
  104   2 H    1       4.050000   -0.550000   30.378001       1.0000      1.0079
  105   2 H    1       5.380001    0.180000   30.628002       1.0000      1.0079
  106   1 O    8      -4.350000    2.480000   29.068001       6.0000     15.9994
  107   2 H    1      -5.250000    2.840000   29.348001       1.0000      1.0079
  108   2 H    1      -3.760000    3.230000   29.408000       1.0000      1.0079
  109   1 O    8      16.000000   -7.660000   33.248000       6.0000     15.9994
  110   2 H    1      16.280001   -8.400001   33.888001       1.0000      1.0079
  111   2 H    1      15.940001   -8.160001   32.268001       1.0000      1.0079
  112   1 O    8     -10.480001   26.920002   38.628002       6.0000     15.9994
  113   2 H    1     -10.900001   27.750000   38.288001       1.0000      1.0079
  114   2 H    1     -11.320001   26.330002   38.728002       1.0000      1.0079
  115   1 O    8       7.940001    9.640000   33.018001       6.0000     15.9994
  116   2 H    1       7.770000    8.760000   33.148001       1.0000      1.0079
  117   2 H    1       8.580000    9.970000   33.738001       1.0000      1.0079
  118   1 O    8       5.780000    2.460000   34.928001       6.0000     15.9994
  119   2 H    1       5.400000    3.020000   34.168001       1.0000      1.0079
  120   2 H    1      13.520001   17.000000   35.608001       1.0000      1.0079
  121   1 O    8       5.490000    3.720000   30.408001       6.0000     15.9994
  122   2 H    1       6.180000    2.990000   30.438001       1.0000      1.0079
  123   2 H    1       5.260000    4.010000   31.368001       1.0000      1.0079
  124   1 O    8       0.800000    9.860001   33.978002       6.0000     15.9994
  125   2 H    1       0.790000    8.950001   33.608001       1.0000      1.0079
  126   2 H    1       1.500000    9.980000   34.568002       1.0000      1.0079
  127   1 O    8       6.660000   11.800001   32.298001       6.0000     15.9994
  128   2 H    1     -10.420000   11.760000   31.348001       1.0000      1.0079
  129   2 H    1       6.970000   10.910001   32.598001       1.0000      1.0079
  130   1 O    8      25.150002   -4.020000   37.468002       6.0000     15.9994
  131   2 H    1      16.900002   10.110001   38.328000       1.0000      1.0079
  132   2 H    1      24.330002   -3.510000   37.788001       1.0000      1.0079
  133   1 O    8     -29.670002   31.630001   36.918001       6.0000     15.9994
  134   2 H    1     -13.730000   31.430000   36.988001       1.0000      1.0079
  135   2 H    1     -29.380001   32.459999   37.228000       1.0000      1.0079
  136   1 O    8      10.520000    7.160000   33.078001       6.0000     15.9994
  137   2 H    1       9.870001    7.280001   32.358001       1.0000      1.0079
  138   2 H    1      10.060000    7.610001   33.858001       1.0000      1.0079
  139   1 O    8     -13.740001   17.750000   37.398002       6.0000     15.9994
  140   2 H    1     -14.410001   17.960001   38.248000       1.0000      1.0079
  141   2 H    1     -13.350000   18.610001   37.088001       1.0000      1.0079
  142   1 O    8       4.420000   10.250001   39.608001       6.0000     15.9994
  143   2 H    1       3.960000    9.470000   39.988000       1.0000      1.0079
  144   2 H    1       5.190001   10.430001   40.218002       1.0000      1.0079
  145   1 O    8     -14.680000   11.240001   29.978001       6.0000     15.9994
  146   2 H    1     -14.430000   11.940001   29.268001       1.0000      1.0079
  147   2 H    1     -14.940001   11.760000   30.758001       1.0000      1.0079
  148   1 O    8      -3.660000   -1.040000   36.868001       6.0000     15.9994
  149   2 H    1      -4.540000   -1.300000   37.208001       1.0000      1.0079
  150   2 H    1      -3.480000   -0.120000   37.198001       1.0000      1.0079
  151   1 O    8      -1.100000   14.910001   35.038001       6.0000     15.9994
  152   2 H    1      -1.700000   15.600000   34.788001       1.0000      1.0079
  153   2 H    1      -0.840000   14.320001   34.298001       1.0000      1.0079
  154   1 O    8     -15.730000    6.190000   36.548002       6.0000     15.9994
  155   2 H    1     -16.360001    5.740000   37.268001       1.0000      1.0079
  156   2 H    1     -16.049999    7.110000   36.468001       1.0000      1.0079
  157   1 O    8      11.910001   28.320000   29.678001       6.0000     15.9994
  158   2 H    1      12.870001   28.150002   29.418001       1.0000      1.0079
  159   2 H    1      11.490001   28.670002   28.858001       1.0000      1.0079
  160   1 O    8       4.390000   12.490001   33.678001       6.0000     15.9994
  161   2 H    1       4.270000   11.850000   34.438001       1.0000      1.0079
  162   2 H    1       5.250000   12.080001   33.368001       1.0000      1.0079
  163   1 O    8      -0.710000   25.130001   38.698001       6.0000     15.9994
  164   2 H    1      -0.780000   24.260002   38.338001       1.0000      1.0079
  165   2 H    1      -0.900000   25.750000   37.928001       1.0000      1.0079
  166   1 O    8      -1.090000   18.950001   37.908002       6.0000     15.9994
  167   2 H    1      -0.860000   19.460001   37.078000       1.0000      1.0079
  168   2 H    1      -1.050000   17.940001   37.778001       1.0000      1.0079
  169   1 O    8      -6.770000   12.250000   32.918001       6.0000     15.9994
  170   2 H    1      -7.210000   11.980001   33.788001       1.0000      1.0079
  171   2 H    1      -6.350000   11.320001   32.738000       1.0000      1.0079
  172   1 O    8      -1.210000   22.220001   37.648002       6.0000     15.9994
  173   2 H    1      -1.990000   22.800003   37.558002       1.0000      1.0079
  174   2 H    1      -0.700000   22.310001   36.858001       1.0000      1.0079
  175   1 O    8       3.890000   15.050001   33.768001       6.0000     15.9994
  176   2 H    1       3.890000   15.390000   34.718002       1.0000      1.0079
  177   2 H    1       4.130000   14.110001   33.828001       1.0000      1.0079
  178   1 O    8       1.470000   20.450001   30.258001       6.0000     15.9994
  179   2 H    1       1.670000   20.350000   29.328001       1.0000      1.0079
  180   2 H    1       0.490000   20.540001   30.428001       1.0000      1.0079
  181   1 O    8      16.750000    7.310000   30.488001       6.0000     15.9994
  182   2 H    1      17.130001    7.980001   29.788001       1.0000      1.0079
  183   2 H    1      15.820000    7.570000   30.778001       1.0000      1.0079
  184   1 O    8     -22.730000    9.950001   32.398002       6.0000     15.9994
  185   2 H    1     -22.650002    9.880000   31.358001       1.0000      1.0079
  186   2 H    1     -22.770002    8.970000   32.668001       1.0000      1.0079
  187   1 O    8      27.010002   39.880001   39.608001       6.0000     15.9994
  188   2 H    1      26.100002   39.970001   39.208001       1.0000      1.0079
  189   2 H    1      27.340002   40.760002   39.788001       1.0000      1.0079
  190   1 O    8      21.860001    6.550000   33.918001       6.0000     15.9994
  191   2 H    1      22.650002    7.030000   33.768001       1.0000      1.0079
  192   2 H    1      21.460001    6.850000   34.748001       1.0000      1.0079
  193   1 O    8      -1.580000  -21.660002   33.418001       6.0000     15.9994
  194   2 H    1      -0.680000  -21.800001   33.018001       1.0000      1.0079
  195   2 H    1      -2.090000  -20.920000   32.948001       1.0000      1.0079
  196   1 O    8     -19.610001    6.740000   37.748000       6.0000     15.9994
  197   2 H    1     -20.150002    6.130000   37.168002       1.0000      1.0079
  198   2 H    1     -18.940001    7.170000   37.138002       1.0000      1.0079
  199   1 O    8      -5.610001   11.500001   36.888002       6.0000     15.9994
  200   2 H    1      -5.840001   12.430000   37.108001       1.0000      1.0079
  201   2 H    1      12.140001   11.610001   36.428002       1.0000      1.0079
  202   1 O    8       0.280000  -19.480001   29.148001       6.0000     15.9994
  203   2 H    1      -0.700000  -19.050001   29.458001       1.0000      1.0079
  204   2 H    1       0.980000  -18.910000   29.508001       1.0000      1.0079
  205   1 O    8       9.170000   10.850000   35.278001       6.0000     15.9994
  206   2 H    1       8.380001   11.380000   35.678001       1.0000      1.0079
  207   2 H    1      -6.830000   11.090001   35.798001       1.0000      1.0079
  208   1 O    8     -13.480000  -18.740002   35.278001       6.0000     15.9994
  209   2 H    1     -12.950001  -19.060001   36.078000       1.0000      1.0079
  210   2 H    1     -13.340001  -19.430000   34.598001       1.0000      1.0079
  211   1 O    8       6.930000   -3.280000   33.828001       6.0000     15.9994
  212   2 H    1       6.290000   -3.100000   34.498000       1.0000      1.0079
  213   2 H    1       7.620000   -3.910000   34.188001       1.0000      1.0079
  214   1 O    8      -7.970000   28.990002   32.238001       6.0000     15.9994
  215   2 H    1      -7.650001   28.090000   32.278001       1.0000      1.0079
  216   2 H    1      -7.120000   29.430000   31.908001       1.0000      1.0079
  217   1 O    8       5.600000   24.660000   32.028001       6.0000     15.9994
  218   2 H    1       4.680000   24.520000   32.348002       1.0000      1.0079
  219   2 H    1       6.070001   25.260000   32.678002       1.0000      1.0079
  220   1 O    8      18.380001    1.550000   36.888002       6.0000     15.9994
  221   2 H    1      17.700001    2.260000   36.748000       1.0000      1.0079
  222   2 H    1      18.340000    1.040000   36.058001       1.0000      1.0079
  223   1 O    8     -15.060000   11.990000   32.538001       6.0000     15.9994
  224   2 H    1     -14.120001   12.240001   32.638001       1.0000      1.0079
  225   2 H    1     -15.240001   11.150000   33.058002       1.0000      1.0079
  226   1 O    8       3.040000   -9.990001   32.958001       6.0000     15.9994
  227   2 H    1       2.710000   -9.060000   32.998000       1.0000      1.0079
  228   2 H    1       3.810000  -10.090000   32.388001       1.0000      1.0079
  229   1 O    8      -8.980000    1.800000   38.128002       6.0000     15.9994
  230   2 H    1      -8.580000    1.540000   39.008003       1.0000      1.0079
  231   2 H    1      -8.260000    1.500000   37.518001       1.0000      1.0079
  232   1 O    8      -3.400000   12.670001   35.508002       6.0000     15.9994
  233   2 H    1      -2.860000   13.230000   36.038001       1.0000      1.0079
  234   2 H    1      -3.820000   13.270000   34.828000       1.0000      1.0079
  235   1 O    8      13.010001   10.390000   39.348001       6.0000     15.9994
  236   2 H    1      13.190001    9.550000   39.828002       1.0000      1.0079
  237   2 H    1      12.040001   10.330000   39.298002       1.0000      1.0079
  238   1 O    8      36.650002   15.440001   31.408000       6.0000     15.9994
  239   2 H    1      37.020000   14.880000   30.738001       1.0000      1.0079
  240   2 H    1      36.900002   15.030001   32.268001       1.0000      1.0079
  241   1 O    8      -3.840000  -10.580001   32.968001       6.0000     15.9994
  242   2 H    1      -4.790000  -10.710001   33.238001       1.0000      1.0079
  243   2 H    1      -3.760000   -9.590000   33.118000       1.0000      1.0079
  244   1 O    8     -11.150000   29.250002   37.778001       6.0000     15.9994
  245   2 H    1     -11.740000   29.850002   37.298002       1.0000      1.0079
  246   2 H    1     -10.220001   29.640003   37.798002       1.0000      1.0079
  247   1 O    8      22.820000   12.140001   29.698001       6.0000     15.9994
  248   2 H    1      23.350000   12.210001   28.838001       1.0000      1.0079
  249   2 H    1      22.240002   11.380000   29.588001       1.0000      1.0079
  250   1 O    8      -4.900000   14.160000   33.338002       6.0000     15.9994
  251   2 H    1      -5.340000   13.340001   33.078001       1.0000      1.0079
  252   2 H    1      -4.480000   14.590001   32.578001       1.0000      1.0079
  253   1 O    8     -12.290001    9.750000   30.348001       6.0000     15.9994
  254   2 H    1     -13.130001   10.270000   30.118001       1.0000      1.0079
  255   2 H    1     -12.620001    9.480001   31.288001       1.0000      1.0079
  256   1 O    8      -2.580000    0.630000   29.968001       6.0000     15.9994
  257   2 H    1      -2.870000    0.710000   30.898001       1.0000      1.0079
  258   2 H    1      -3.280000    1.270000   29.478001       1.0000      1.0079
  259   1 O    8       5.080000   16.170002   37.568000       6.0000     15.9994
  260   2 H    1       5.900001   16.730001   37.548002       1.0000      1.0079
  261   2 H    1       4.280000   16.850000   37.588001       1.0000      1.0079
  262   1 O    8       9.730001    4.010000   39.668002       6.0000     15.9994
  263   2 H    1      17.310001  -10.530001   39.248000       1.0000      1.0079
  264   2 H    1      10.040001    4.960000   39.548002       1.0000      1.0079
  265   1 O    8      19.790001   23.360003   30.028001       6.0000     15.9994
  266   2 H    1      19.550001   24.000000   29.278001       1.0000      1.0079
  267   2 H    1      19.190002   22.580002   29.938001       1.0000      1.0079
  268   1 O    8     -20.080002    4.420000   30.658000       6.0000     15.9994
  269   2 H    1     -19.130001    4.100000   30.738001       1.0000      1.0079
  270   2 H    1     -20.080002    5.320000   30.338001       1.0000      1.0079
  271   1 O    8       9.720000   30.060001   36.378002       6.0000     15.9994
  272   2 H    1       9.040001   29.820002   35.698001       1.0000      1.0079
  273   2 H    1      10.290001   30.850000   35.998001       1.0000      1.0079
  274   1 O    8      -3.630000   19.360001   37.728002       6.0000     15.9994
  275   2 H    1      14.250001   19.360001   37.868001       1.0000      1.0079
  276   2 H    1      12.860001   19.750002   38.578002       1.0000      1.0079
  277   1 O    8      -4.970000    8.200001   37.348001       6.0000     15.9994
  278   2 H    1      -4.920000    9.020000   37.898002       1.0000      1.0079
  279   2 H    1      -4.050000    7.760000   37.378002       1.0000      1.0079
  280   1 O    8      16.490000   19.370001   35.208001       6.0000     15.9994
  281   2 H    1      17.240002   18.720001   35.048002       1.0000      1.0079
  282   2 H    1      15.610001   18.950001   35.168001       1.0000      1.0079
  283   1 O    8      15.040001   10.950001   29.798001       6.0000     15.9994
  284   2 H    1      14.500000   10.620001   30.588001       1.0000      1.0079
  285   2 H    1      14.460001   10.650001   28.908000       1.0000      1.0079
  286   1 O    8     -13.160001  -22.570002   36.498001       6.0000     15.9994
  287   2 H    1     -14.150001  -22.720001   36.628002       1.0000      1.0079
  288   2 H    1     -12.710000  -23.320000   36.988001       1.0000      1.0079
  289   1 O    8     -17.910002   -2.090000   37.088001       6.0000     15.9994
  290   2 H    1     -17.380001   -1.440000   37.628002       1.0000      1.0079
  291   2 H    1      -1.970000   -1.820000   36.968002       1.0000      1.0079
  292   3 Pt  78       1.650000    0.800000   15.230000      10.0000    195.0840
  293   3 Pt  78       4.500000    0.660000   15.080002      10.0000    195.0840
  294   3 Pt  78       7.380000    0.770000   15.140003      10.0000    195.0840
  295   3 Pt  78      10.110001    0.720000   15.150002      10.0000    195.0840
  296   3 Pt  78      12.870001    0.610000   15.130001      10.0000    195.0840
  297   3 Pt  78      15.730000    0.660000   15.250004      10.0000    195.0840
  298   3 Pt  78       3.060000    3.250000   15.260002      10.0000    195.0840
  299   3 Pt  78       5.750000    3.070000   15.270004      10.0000    195.0840
  300   3 Pt  78       8.530001    3.160000   15.150002      10.0000    195.0840
  301   3 Pt  78      11.450001    3.110000   15.160000      10.0000    195.0840
  302   3 Pt  78      14.460001    3.130000   15.200001      10.0000    195.0840
  303   3 Pt  78       0.300000    3.200000   15.270004      10.0000    195.0840
  304   3 Pt  78       4.420000    5.620000   15.180004      10.0000    195.0840
  305   3 Pt  78       7.170000    5.580000   15.240002      10.0000    195.0840
  306   3 Pt  78      10.040001    5.530000   15.240002      10.0000    195.0840
  307   3 Pt  78      12.980001    5.520000   15.330002      10.0000    195.0840
  308   3 Pt  78      -1.130000    5.580000   15.090000      10.0000    195.0840
  309   3 Pt  78       1.590000    5.620000   15.170002      10.0000    195.0840
  310   3 Pt  78       5.800000    8.010000   15.250004      10.0000    195.0840
  311   3 Pt  78       8.660001    7.940001   15.220001      10.0000    195.0840
  312   3 Pt  78      11.590000    7.830000   15.280003      10.0000    195.0840
  313   3 Pt  78      -2.550000    7.920001   15.240002      10.0000    195.0840
  314   3 Pt  78       0.170000    7.920001   15.000000      10.0000    195.0840
  315   3 Pt  78       2.920000    8.050001   15.130001      10.0000    195.0840
  316   3 Pt  78       7.180000   10.370001   15.260002      10.0000    195.0840
  317   3 Pt  78      10.000000   10.410000   15.140003      10.0000    195.0840
  318   3 Pt  78      -3.960000   10.420000   15.260002      10.0000    195.0840
  319   3 Pt  78      -1.030000   10.380001   15.299999      10.0000    195.0840
  320   3 Pt  78       1.630000   10.340000   15.090000      10.0000    195.0840
  321   3 Pt  78       4.440001   10.490000   15.110004      10.0000    195.0840
  322   3 Pt  78       8.700001   12.840000   15.120003      10.0000    195.0840
  323   3 Pt  78      -5.310000   12.970000   15.310001      10.0000    195.0840
  324   3 Pt  78      -2.530000   12.970000   15.299999      10.0000    195.0840
  325   3 Pt  78       0.310000   12.930001   15.280003      10.0000    195.0840
  326   3 Pt  78       3.010000   12.850000   15.230000      10.0000    195.0840
  327   3 Pt  78       5.870000   12.890000   15.130001      10.0000    195.0840
  328   3 Pt  78       0.260000    1.670000   17.610004      10.0000    195.0840
  329   3 Pt  78       3.130000    1.670000   17.570000      10.0000    195.0840
  330   3 Pt  78       5.990000    1.480000   17.540005      10.0000    195.0840
  331   3 Pt  78       8.760000    1.490000   17.540005      10.0000    195.0840
  332   3 Pt  78      11.450001    1.520000   17.630001      10.0000    195.0840
  333   3 Pt  78      14.140000    1.450000   17.570000      10.0000    195.0840
  334   3 Pt  78       1.560000    4.020000   17.510002      10.0000    195.0840
  335   3 Pt  78       4.430000    3.940000   17.590000      10.0000    195.0840
  336   3 Pt  78       7.280001    3.900000   17.600002      10.0000    195.0840
  337   3 Pt  78      10.020000    3.850000   17.530003      10.0000    195.0840
  338   3 Pt  78      12.770000    3.940000   17.600002      10.0000    195.0840
  339   3 Pt  78      -1.260000    3.900000   17.630001      10.0000    195.0840
  340   3 Pt  78       3.020000    6.520000   17.400002      10.0000    195.0840
  341   3 Pt  78       5.690000    6.360001   17.590000      10.0000    195.0840
  342   3 Pt  78       8.510000    6.350000   17.550003      10.0000    195.0840
  343   3 Pt  78      11.400002    6.360001   17.550003      10.0000    195.0840
  344   3 Pt  78      -2.660000    6.390000   17.610004      10.0000    195.0840
  345   3 Pt  78       0.180000    6.400001   17.470001      10.0000    195.0840
  346   3 Pt  78       4.290000    8.920000   17.620003      10.0000    195.0840
  347   3 Pt  78       7.150001    8.740000   17.570000      10.0000    195.0840
  348   3 Pt  78      10.040001    8.800000   17.500000      10.0000    195.0840
  349   3 Pt  78      -4.090000    8.800000   17.560001      10.0000    195.0840
  350   3 Pt  78      -1.200000    8.820001   17.420002      10.0000    195.0840
  351   3 Pt  78       1.570000    8.740000   17.510002      10.0000    195.0840
  352   3 Pt  78       5.920000   11.240001   17.540005      10.0000    195.0840
  353   3 Pt  78       8.650001   11.230000   17.520000      10.0000    195.0840
  354   3 Pt  78      -5.440001   11.270000   17.540005      10.0000    195.0840
  355   3 Pt  78      -2.640000   11.350001   17.550003      10.0000    195.0840
  356   3 Pt  78       0.330000   11.260000   17.520000      10.0000    195.0840
  357   3 Pt  78       3.110000   11.330000   17.510002      10.0000    195.0840
  358   3 Pt  78       7.240000   13.620001   17.460003      10.0000    195.0840
  359   3 Pt  78      -6.840000   13.840000   17.480003      10.0000    195.0840
  360   3 Pt  78      -4.110000   13.820001   17.590000      10.0000    195.0840
  361   3 Pt  78      -1.050000   13.770000   17.530003      10.0000    195.0840
  362   3 Pt  78       1.640000   13.700001   17.570000      10.0000    195.0840
  363   3 Pt  78       4.420000   13.720001   17.550003      10.0000    195.0840
  364   3 Pt  78      -8.270000   14.530001   19.760002      10.0000    195.0840
  365   3 Pt  78      -5.390000   14.530001   19.750004      10.0000    195.0840
  366   3 Pt  78      -2.530000   14.490002   19.830002      10.0000    195.0840
  367   3 Pt  78       0.160000   14.440001   19.940002      10.0000    195.0840
  368   3 Pt  78       2.990000   14.480001   19.910000      10.0000    195.0840
  369   3 Pt  78       5.830000   14.540001   19.970001      10.0000    195.0840
  370   3 Pt  78       1.570000    2.450000   19.780003      10.0000    195.0840
  371   3 Pt  78       4.440001    2.440000   19.870003      10.0000    195.0840
  372   3 Pt  78       7.290000    2.330000   19.900002      10.0000    195.0840
  373   3 Pt  78      10.090000    2.210000   19.910000      10.0000    195.0840
  374   3 Pt  78      12.870001    2.290000   19.970001      10.0000    195.0840
  375   3 Pt  78      -1.230000    2.280000   19.890003      10.0000    195.0840
  376   3 Pt  78       3.060000    4.860000   19.870003      10.0000    195.0840
  377   3 Pt  78       5.870000    4.750000   19.820004      10.0000    195.0840
  378   3 Pt  78       8.690001    4.770000   19.870003      10.0000    195.0840
  379   3 Pt  78      11.360001    4.750000   19.880001      10.0000    195.0840
  380   3 Pt  78      -2.690000    4.760000   19.840000      10.0000    195.0840
  381   3 Pt  78       0.240000    4.750000   19.870003      10.0000    195.0840
  382   3 Pt  78       4.450000    7.250000   19.890003      10.0000    195.0840
  383   3 Pt  78       7.210000    7.200000   19.870003      10.0000    195.0840
  384   3 Pt  78       9.950001    7.320001   19.900002      10.0000    195.0840
  385   3 Pt  78      -4.130000    7.160000   19.880001      10.0000    195.0840
  386   3 Pt  78      -1.120000    7.150001   19.890003      10.0000    195.0840
  387   3 Pt  78       1.600000    7.240000   19.830002      10.0000    195.0840
  388   3 Pt  78       5.810000    9.710001   19.920002      10.0000    195.0840
  389   3 Pt  78       8.620001    9.650001   19.800003      10.0000    195.0840
  390   3 Pt  78      -5.400000    9.680000   19.770000      10.0000    195.0840
  391   3 Pt  78      -2.610000    9.500000   19.770000      10.0000    195.0840
  392   3 Pt  78       0.240000    9.600000   19.810001      10.0000    195.0840
  393   3 Pt  78       3.010000    9.630001   19.960003      10.0000    195.0840
  394   3 Pt  78       7.190001   12.150001   19.880001      10.0000    195.0840
  395   3 Pt  78      -6.940000   12.120000   19.680004      10.0000    195.0840
  396   3 Pt  78      -3.970000   12.080001   19.800003      10.0000    195.0840
  397   3 Pt  78      -1.260000   11.960001   19.860004      10.0000    195.0840
  398   3 Pt  78       1.510000   12.090001   19.890003      10.0000    195.0840
  399   3 Pt  78       4.320000   12.130001   19.900002      10.0000    195.0840
  400   3 Pt  78       1.560000    0.740000   21.998000      10.0000    195.0840
  401   3 Pt  78       4.370000    0.650000   22.098000      10.0000    195.0840
  402   3 Pt  78       7.200000    0.720000   22.198001      10.0000    195.0840
  403   3 Pt  78       9.890000    0.720000   22.238000      10.0000    195.0840
  404   3 Pt  78      12.790001    0.650000   22.278001      10.0000    195.0840
  405   3 Pt  78      15.540000    0.720000   22.208001      10.0000    195.0840
  406   3 Pt  78       2.990000    3.030000   22.138001      10.0000    195.0840
  407   3 Pt  78       5.760000    3.190000   22.258000      10.0000    195.0840
  408   3 Pt  78       8.570001    3.270000   22.158001      10.0000    195.0840
  409   3 Pt  78      11.350001    3.120000   22.218000      10.0000    195.0840
  410   3 Pt  78      14.240000    3.060000   22.218000      10.0000    195.0840
  411   3 Pt  78       0.190000    3.100000   22.208001      10.0000    195.0840
  412   3 Pt  78       4.400000    5.570001   22.188001      10.0000    195.0840
  413   3 Pt  78       7.120000    5.700001   22.158001      10.0000    195.0840
  414   3 Pt  78       9.880000    5.710001   22.188001      10.0000    195.0840
  415   3 Pt  78      12.710000    5.520000   22.158001      10.0000    195.0840
  416   3 Pt  78      -1.300000    5.540000   22.118000      10.0000    195.0840
  417   3 Pt  78       1.630000    5.540000   22.118000      10.0000    195.0840
  418   3 Pt  78       5.780000    8.100000   22.188001      10.0000    195.0840
  419   3 Pt  78       8.590000    8.080000   22.198001      10.0000    195.0840
  420   3 Pt  78      11.440001    8.030001   22.178001      10.0000    195.0840
  421   3 Pt  78      -2.710000    7.890000   22.128001      10.0000    195.0840
  422   3 Pt  78       0.170000    7.890000   22.178001      10.0000    195.0840
  423   3 Pt  78       2.980000    8.020000   22.158001      10.0000    195.0840
  424   3 Pt  78       7.200000   10.580001   22.138001      10.0000    195.0840
  425   3 Pt  78      10.000000   10.430001   22.008000      10.0000    195.0840
  426   3 Pt  78      -4.100000   10.410000   22.028001      10.0000    195.0840
  427   3 Pt  78      -1.270000   10.400001   22.168001      10.0000    195.0840
  428   3 Pt  78       1.500000   10.480001   22.278001      10.0000    195.0840
  429   3 Pt  78       4.330000   10.420000   22.168001      10.0000    195.0840
  430   3 Pt  78       8.520000   12.950001   22.168001      10.0000    195.0840
  431   3 Pt  78      -5.530000   12.830001   21.898001      10.0000    195.0840
  432   3 Pt  78      -2.700000   12.780001   22.218000      10.0000    195.0840
  433   3 Pt  78       0.050000   12.820001   22.198001      10.0000    195.0840
  434   3 Pt  78       2.860000   12.900001   22.318000      10.0000    195.0840
  435   3 Pt  78       5.760000   12.880001   22.268000      10.0000    195.0840
  436   3 Pt  78       0.010000    1.570000   24.488000      10.0000    195.0840
  437   3 Pt  78       2.900000    1.600000   24.388001      10.0000    195.0840
  438   3 Pt  78       5.640000    1.560000   24.538000      10.0000    195.0840
  439   3 Pt  78       8.540000    1.660000   24.408001      10.0000    195.0840
  440   3 Pt  78      11.310000    1.620000   24.528001      10.0000    195.0840
  441   3 Pt  78      14.100000    1.580000   24.738001      10.0000    195.0840
  442   3 Pt  78       1.470000    4.030000   24.468000      10.0000    195.0840
  443   3 Pt  78       4.310000    3.990000   24.468000      10.0000    195.0840
  444   3 Pt  78       7.130001    4.110000   24.528001      10.0000    195.0840
  445   3 Pt  78      10.040001    4.070000   24.478001      10.0000    195.0840
  446   3 Pt  78      12.740001    4.000000   24.508001      10.0000    195.0840
  447   3 Pt  78      -1.340000    3.920000   24.538000      10.0000    195.0840
  448   3 Pt  78       2.850000    6.420000   24.518001      10.0000    195.0840
  449   3 Pt  78       5.690000    6.450000   24.578001      10.0000    195.0840
  450   3 Pt  78       8.590000    6.460000   24.648001      10.0000    195.0840
  451   3 Pt  78      11.430000    6.460000   24.468000      10.0000    195.0840
  452   3 Pt  78      -2.640000    6.360001   24.548001      10.0000    195.0840
  453   3 Pt  78       0.060000    6.340000   24.418001      10.0000    195.0840
  454   3 Pt  78       4.280000    8.820001   24.498001      10.0000    195.0840
  455   3 Pt  78       7.270000    8.890000   24.448001      10.0000    195.0840
  456   3 Pt  78      10.120001    9.000000   24.438001      10.0000    195.0840
  457   3 Pt  78      -3.940000    8.790001   24.488000      10.0000    195.0840
  458   3 Pt  78      -1.250000    8.850000   24.528001      10.0000    195.0840
  459   3 Pt  78       1.520000    8.760000   24.508001      10.0000    195.0840
  460   3 Pt  78       5.780000   11.180000   24.498001      10.0000    195.0840
  461   3 Pt  78       8.610001   11.310000   24.348001      10.0000    195.0840
  462   3 Pt  78      -5.560000   11.380000   24.308001      10.0000    195.0840
  463   3 Pt  78      -2.610000   11.420001   24.518001      10.0000    195.0840
  464   3 Pt  78       0.080000   11.150000   24.558000      10.0000    195.0840
  465   3 Pt  78       2.990000   11.280001   24.558000      10.0000    195.0840
  466   3 Pt  78       7.190001   13.810000   24.518001      10.0000    195.0840
  467   3 Pt  78      -6.920000   13.810000   24.328000      10.0000    195.0840
  468   3 Pt  78      -4.130000   13.760000   24.328000      10.0000    195.0840
  469   3 Pt  78      -1.280000   13.760000   24.488000      10.0000    195.0840
  470   3 Pt  78       1.530000   13.700001   24.518001      10.0000    195.0840
  471   3 Pt  78       4.390000   13.700001   24.598001      10.0000    195.0840
  472   3 Pt  78      -8.280001   14.610001   26.948001      10.0000    195.0840
  473   3 Pt  78      -5.610001   14.560001   26.748001      10.0000    195.0840
  474   3 Pt  78      -2.800000   14.550000   26.758001      10.0000    195.0840
  475   3 Pt  78       0.180000   14.550000   26.798001      10.0000    195.0840
  476   3 Pt  78       2.990000   14.730001   26.738000      10.0000    195.0840
  477   3 Pt  78       5.790000   14.590001   26.968001      10.0000    195.0840
  478   3 Pt  78       1.530000    2.310000   26.828000      10.0000    195.0840
  479   3 Pt  78       4.280000    2.430000   26.978001      10.0000    195.0840
  480   3 Pt  78       7.050000    2.280000   26.798001      10.0000    195.0840
  481   3 Pt  78       9.890000    2.440000   26.878001      10.0000    195.0840
  482   3 Pt  78      12.770000    2.440000   26.958001      10.0000    195.0840
  483   3 Pt  78      -1.240000    2.470000   27.058000      10.0000    195.0840
  484   3 Pt  78       3.010000    4.880000   26.808001      10.0000    195.0840
  485   3 Pt  78       5.820000    4.830000   26.848001      10.0000    195.0840
  486   3 Pt  78       8.480000    4.860000   26.958001      10.0000    195.0840
  487   3 Pt  78      11.430000    4.870000   26.898001      10.0000    195.0840
  488   3 Pt  78      -2.640000    4.870000   26.888001      10.0000    195.0840
  489   3 Pt  78       0.090000    4.890000   26.738000      10.0000    195.0840
  490   3 Pt  78       4.280000    7.340000   26.898001      10.0000    195.0840
  491   3 Pt  78       7.070000    7.300000   26.798001      10.0000    195.0840
  492   3 Pt  78      10.040001    7.170000   26.768001      10.0000    195.0840
  493   3 Pt  78      -3.970000    7.250000   26.848001      10.0000    195.0840
  494   3 Pt  78      -1.250000    7.310000   27.008001      10.0000    195.0840
  495   3 Pt  78       1.430000    7.230001   26.908001      10.0000    195.0840
  496   3 Pt  78       5.760000    9.840000   26.858001      10.0000    195.0840
  497   3 Pt  78       8.620001    9.750000   26.728000      10.0000    195.0840
  498   3 Pt  78      -5.300000    9.710001   26.748001      10.0000    195.0840
  499   3 Pt  78      -2.570000    9.690001   26.818001      10.0000    195.0840
  500   3 Pt  78       0.160000    9.770000   26.978001      10.0000    195.0840
  501   3 Pt  78       2.940000    9.790000   26.818001      10.0000    195.0840
  502   3 Pt  78       7.370000   12.190001   26.738000      10.0000    195.0840
  503   3 Pt  78      -6.840000   12.060001   26.598000      10.0000    195.0840
  504   3 Pt  78      -4.100000   12.140001   26.768001      10.0000    195.0840
  505   3 Pt  78      -1.190000   12.290001   26.928001      10.0000    195.0840
[...]
 -                                                                             -
 -                                DBCSR STATISTICS                             -
 -                                                                             -
 -------------------------------------------------------------------------------
 COUNTER                                    TOTAL       BLAS       SMM       ACC
 flops     5 x     5 x   112           5401838400       0.0%    100.0%      0.0%
 flops     5 x    13 x   112           6872392800       0.0%    100.0%      0.0%
 flops    13 x     5 x   112           6891699360       0.0%    100.0%      0.0%
 flops    13 x    13 x   112           8259346368       0.0%    100.0%      0.0%
 flops     5 x     5 x    96           9260294400       0.0%    100.0%      0.0%
 flops     5 x    13 x    96          11781244800       0.0%    100.0%      0.0%
 flops    13 x     5 x    96          11814341760       0.0%    100.0%      0.0%
 flops    13 x    20 x   112          12166103040       0.0%    100.0%      0.0%
 flops    20 x    13 x   112          12264120960       0.0%    100.0%      0.0%
 flops    20 x     5 x   112          13043923200       0.0%    100.0%      0.0%
 flops     5 x    20 x   112          13072483200       0.0%    100.0%      0.0%
 flops    13 x    13 x    96          14158879488       0.0%    100.0%      0.0%
 flops    13 x    20 x    96          20856176640       0.0%    100.0%      0.0%
 flops    20 x    13 x    96          21024207360       0.0%    100.0%      0.0%
 flops    20 x     5 x    96          22361011200       0.0%    100.0%      0.0%
 flops     5 x    20 x    96          22409971200       0.0%    100.0%      0.0%
 flops     5 x     5 x   128          80255884800       0.0%    100.0%      0.0%
 flops     5 x    13 x   128         102104121600       0.0%    100.0%      0.0%
 flops    13 x     5 x   128         102390961920       0.0%    100.0%      0.0%
 flops    20 x    20 x   112         107093145600       0.0%    100.0%      0.0%
 flops    13 x    13 x   128         122710288896       0.0%    100.0%      0.0%
 flops    13 x    20 x   128         180753530880       0.0%    100.0%      0.0%
 flops    20 x    13 x   128         182209797120       0.0%    100.0%      0.0%
 flops    20 x    20 x    96         183588249600       0.0%    100.0%      0.0%
 flops    20 x     5 x   128         193795430400       0.0%    100.0%      0.0%
 flops     5 x    20 x   128         194219750400       0.0%    100.0%      0.0%
 flops    20 x    20 x   128        1591098163200       0.0%    100.0%      0.0%
 flops inhomo. stacks                           0       0.0%      0.0%      0.0%
 flops total                         3.251857E+12       0.0%    100.0%      0.0%
 flops max/rank                     30.097553E+09       0.0%    100.0%      0.0%
 matmuls inhomo. stacks                         0       0.0%      0.0%      0.0%
 matmuls total                           78540000       0.0%    100.0%      0.0%
 number of processed stacks                937584       0.0%    100.0%      0.0%
 average stack size                                     0.0      83.8       0.0
 marketing flops                     6.695093E+12
 -------------------------------------------------------------------------------
 # multiplications                             51
 max memory usage/rank               1.633948E+09
 # max total images/rank                        2
 # max 3D layers                                1
 # MPI messages exchanged                  189312
 MPI messages size (bytes):
  total size                       115.721888E+09
  min size                         311.808000E+03
  max size                         841.728000E+03
  average size                     611.276000E+03
 MPI breakdown and total messages size (bytes):
             size <=      128                   0                        0
       128 < size <=     8192                   0                        0
      8192 < size <=    32768                   0                        0
     32768 < size <=   131072                   0                        0
    131072 < size <=  4194304              189312             115721895168
   4194304 < size <= 16777216                   0                        0
  16777216 < size                               0                        0
 -------------------------------------------------------------------------------

 *** WARNING in dbcsr_mm.F:290 :: Using a non-square number of MPI ranks ***
 *** might lead to poor performance. Used ranks: 128 Suggested: 121 256  ***

 -------------------------------------------------------------------------------
 -                                                                             -
 -                      DBCSR MESSAGE PASSING PERFORMANCE                      -
 -                                                                             -
 -------------------------------------------------------------------------------
 ROUTINE             CALLS      AVE VOLUME [Bytes]
 MP_Bcast               28                     12.
 MP_Allreduce          431                     11.
 MP_Alltoall          1440                 566969.
 MP_ISend             3264                 289127.
 MP_IRecv             3264                 282557.
 -------------------------------------------------------------------------------

 -------------------------------------------------------------------------------
 -                                                                             -
 -                                DBM STATISTICS                               -
 -                                                                             -
 -------------------------------------------------------------------------------
    M  x    N  x    K                                          COUNT     PERCENT
 -------------------------------------------------------------------------------

 -------------------------------------------------------------------------------
 -                                                                             -
 -                                GRID STATISTICS                              -
 -                                                                             -
 -------------------------------------------------------------------------------
 LP    KERNEL             BACKEND                              COUNT     PERCENT
 4     collocate general  REF                               20608896      22.59%
 4     integrate general  REF                               20478703      22.44%
 3     collocate general  REF                               13969053      15.31%
 3     integrate general  REF                               13909204      15.24%
 2     collocate general  REF                               10916754      11.96%
 2     integrate general  REF                               10702700      11.73%
 5     integrate general  REF                                 404096       0.44%
 0     collocate general  REF                                 129792       0.14%
 0     integrate general  REF                                  64896       0.07%
 1     integrate general  REF                                  64896       0.07%
 -------------------------------------------------------------------------------

 MEMORY| Estimated peak process memory [MiB]                                1813

 -------------------------------------------------------------------------------
 ----                             MULTIGRID INFO                            ----
 -------------------------------------------------------------------------------
 count for grid        1:        1093038          cutoff [a.u.]          200.00
 count for grid        2:        1087997          cutoff [a.u.]           66.67
 count for grid        3:         709493          cutoff [a.u.]           22.22
 count for grid        4:         546875          cutoff [a.u.]            7.41
 total gridlevel count  :        3437403

 -------------------------------------------------------------------------------
 -                                                                             -
 -                         MESSAGE PASSING PERFORMANCE                         -
 -                                                                             -
 -------------------------------------------------------------------------------

 ROUTINE             CALLS      AVE VOLUME [Bytes]
 MP_Group                4
 MP_Bcast              256                2226852.
 MP_Allreduce         3707                  28803.
 MP_Sync               106
 MP_Alltoall          3082               16871321.
 MP_SendRecv           508                   6339.
 MP_ISendRecv        25908                  61740.
 MP_Wait             45750
 MP_comm_split          51
 MP_ISend            18700                 255985.
 MP_IRecv            18700                 255985.
 MP_Recv               183                1677056.
 MP_Write_All            3                1797408.
 -------------------------------------------------------------------------------


 -------------------------------------------------------------------------------
 -                                                                             -
 -                           R E F E R E N C E S                               -
 -                                                                             -
 -------------------------------------------------------------------------------
 
 CP2K version 2022.1, the CP2K developers group (2022).
 CP2K is freely available from https://www.cp2k.org/ .

 Kuehne,Thomas D.; Iannuzzi,Marcella; Del Ben,Mauro;
 Rybkin,Vladimir V.; Seewald,Patrick; Stein,Frederick; Laino,Teodoro;
 Khaliullin,Rustam Z.; Schuett,Ole; Schiffmann,Florian; Golze,Dorothea;
 Wilhelm,Jan; Chulkov,Sergey; Bani-Hashemian,Mohammad Hossein;
 Weber,Valery; Borstnik,Urban; Taillefumier,Mathieu;
 Jakobovits,Alice Shoshana; Lazzaro,Alfio; Pabst,Hans; Mueller,Tiziano;
 Schade,Robert; Guidon,Manuel; Andermatt,Samuel; Holmberg,Nico;
 Schenter,Gregory K.; Hehn,Anna; Bussy,Augustin; Belleflamme,Fabian;
 Tabacchi,Gloria; Gloess,Andreas; Lass,Michael; Bethune,Iain;
 Mundy,Christopher J.; Plessl,Christian; Watkins,Matt;
 VandeVondele,Joost; Krack,Matthias; Hutter,Juerg. 
 The Journal of Chemical Physics, 152 (19), (2020). 
 CP2K: An electronic structure and molecular dynamics software package -
 Quickstep: Efficient and accurate electronic structure calculations.
 https://doi.org/10.1063/5.0007045

 Goerigk, Lars; Hansen, Andreas; Bauer, Christoph; Ehrlich, Stephan;
 Najibi, Asim; Grimme, Stefan. , 19 (48), (2017). 
 A look at the density functional theory zoo with the advanced GMTKN55 database
 for general main group thermochemistry, kinetics and noncovalent interactions.
 https://doi.org/10.1039/C7CP04913G

 Bani-Hashemian, MH; Bruck, S; Luisier, M; VandeVondele, J. 
 JOURNAL OF CHEMICAL PHYSICS, 144 (4), 044113 (2016). 
 A generalized Poisson solver for first-principles device simulations.
 https://doi.org/10.1063/1.4940796

 Schuett, Ole; Messmer, Peter; Hutter, Juerg; VandeVondele, Joost. 
 Electronic Structure Calculations on Graphics Processing Units, John
 Wiley & Sons, Ltd, 173-190 (2016). 
 GPU-Accelerated Sparse Matrix-Matrix Multiplication for
 Linear Scaling Density Functional Theory.
 https://doi.org/10.1002/9781118670712.ch8

 Heinecke, A; Henry, G; Hutchinson, M; Pabst, H. 
 Proceedings of Intl. Supercomputing Conference, 981-991 (2016). 
 LIBXSMM: Accelerating Small Matrix Multiplications
 by Runtime Code Generation.
 https://doi.org/10.1109/SC.2016.83

 Borstnik, U; VandeVondele, J; Weber, V; Hutter, J. 
 PARALLEL COMPUTING, 40 (5-6), 47-58 (2014). 
 Sparse matrix multiplication: The distributed block-compressed sparse
 row library.
 https://doi.org/10.1016/j.parco.2014.03.012

 Hutter, J; Iannuzzi, M; Schiffmann, F; VandeVondele, J. 
 WIREs Comput Mol Sci., 4 (1), 15-25 (2014). 
 CP2K: atomistic simulations of condensed matter systems.
 https://doi.org/10.1002/wcms.1159

 Marek, A; Blum, V; Johanni, R; Havu, V; Lang, B; Auckenthaler, T;
 Heinecke, A; Bungartz, H; Lederer, H. 
 Journal of Physics: Condensed Matter, 26 (21), (2014). 
 The ELPA library: scalable parallel eigenvalue solutions for
 electronic structure
 theory and computational science.
 https://doi.org/10.1088/0953-8984/26/21/213201

 Grimme, S; Ehrlich, S; Goerigk, L. 
 JOURNAL OF COMPUTATIONAL CHEMISTRY, 32, 1456 (2011). 
 Effect of the damping function in dispersion corrected density functional theory.
 https://doi.org/10.1002/jcc.21759

 Grimme, S; Antony, J; Ehrlich, S; Krieg, H. 
 JOURNAL OF CHEMICAL PHYSICS, 132 (15), 154104 (2010). 
 A consistent and accurate ab initio parametrization of density
 functional dispersion correction (DFT-D) for the 94 elements H-Pu.
 https://doi.org/10.1063/1.3382344

 VandeVondele, J; Hutter, J. 
 JOURNAL OF CHEMICAL PHYSICS, 127 (11), 114105 (2007). 
 Gaussian basis sets for accurate calculations on molecular systems in
 gas and condensed phases.
 https://doi.org/10.1063/1.2770708

 Krack, M. 
 THEORETICAL CHEMISTRY ACCOUNTS, 114 (1-3), 145-152 (2005). 
 Pseudopotentials for H to Kr optimized for gradient-corrected
 exchange-correlation functionals.
 https://doi.org/10.1007/s00214-005-0655-y

 VandeVondele, J; Krack, M; Mohamed, F; Parrinello, M; Chassaing, T;
 Hutter, J. COMPUTER PHYSICS COMMUNICATIONS, 167 (2), 103-128 (2005). 
 QUICKSTEP: Fast and accurate density functional calculations using a
 mixed Gaussian and plane waves approach.
 https://doi.org/10.1016/j.cpc.2004.12.014

 Frigo, M; Johnson, SG. 
 PROCEEDINGS OF THE IEEE, 93 (2), 216-231 (2005). 
 The design and implementation of FFTW3.
 https://doi.org/10.1109/JPROC.2004.840301

 Hartwigsen, C; Goedecker, S; Hutter, J. 
 PHYSICAL REVIEW B, 58 (7), 3641-3662 (1998). 
 Relativistic separable dual-space Gaussian pseudopotentials from H to Rn.
 https://doi.org/10.1103/PhysRevB.58.3641

 Lippert, G; Hutter, J; Parrinello, M. 
 MOLECULAR PHYSICS, 92 (3), 477-487 (1997). 
 A hybrid Gaussian and plane wave density functional scheme.
 https://doi.org/10.1080/002689797170220

 Perdew, JP; Burke, K; Ernzerhof, M. 
 PHYSICAL REVIEW LETTERS, 77 (18), 3865-3868 (1996). 
 Generalized gradient approximation made simple.
 https://doi.org/10.1103/PhysRevLett.77.3865

 Goedecker, S; Teter, M; Hutter, J. 
 PHYSICAL REVIEW B, 54 (3), 1703-1710 (1996). 
 Separable dual-space Gaussian pseudopotentials.
 https://doi.org/10.1103/PhysRevB.54.1703


 -------------------------------------------------------------------------------
 -                                                                             -
 -                                T I M I N G                                  -
 -                                                                             -
 -------------------------------------------------------------------------------
 SUBROUTINE                       CALLS  ASD         SELF TIME        TOTAL TIME
                                MAXIMUM       AVERAGE  MAXIMUM  AVERAGE  MAXIMUM
 CP2K                                 1  1.0    0.697    0.712  357.585  357.587
 qs_forces                            1  2.0    0.002    0.002  356.545  356.546
 qs_energies                          1  3.0    0.000    0.001  350.395  350.401
 scf_env_do_scf                       1  4.0    0.000    0.000  341.950  342.084
 scf_env_do_scf_inner_loop           50  5.0    0.003    0.008  341.950  342.084
 rebuild_ks_matrix                   51  6.9    0.000    0.000  184.232  184.280
 qs_ks_build_kohn_sham_matrix        51  7.9    0.008    0.009  184.231  184.280
 qs_ks_update_qs_env                 50  6.0    0.000    0.000  180.207  180.255
 pw_transfer                       2656 12.2    0.194    0.239  114.967  117.483
 fft_wrap_pw1pw2                   2656 13.2    0.027    0.030  114.773  117.255
 fft_wrap_pw1pw2_200               2350 14.4    7.807    9.175  113.263  115.662
 pw_poisson_solve                    51  8.9    0.005    0.013   98.874   98.922
 fft3d_ps                          2656 15.2   33.334   37.180   92.129   95.840
 qs_scf_new_mos                      50  6.0    0.002    0.007   95.492   95.623
 implicit_poisson_solver_mixed_      51  9.9    2.106    2.551   93.665   93.738
 eigensolver                         50  7.0    0.004    0.006   90.056   90.296
 derive_fft                         306 12.1    0.019    0.022   65.741   65.930
 cp_fm_diag_elpa                     51  8.0    0.001    0.001   63.116   63.274
 cp_fm_redistribute_end              51  9.0    8.252   62.503    8.354   62.569
 cp_fm_diag_elpa_base                51  9.0   53.367   61.057   53.904   61.739
 mp_alltoall_z22v                  2656 17.2   49.160   61.115   49.160   61.115
 qs_rho_update_rho_low               51  6.0    0.000    0.000   58.630   58.647
 calculate_rho_elec                  51  7.0    0.098    0.128   58.630   58.646
 sum_up_and_integrate                51  8.9    0.277    0.345   57.203   57.257
 integrate_v_rspace                  51  9.9    0.002    0.003   56.925   57.059
 apply_P_operator                   255 11.1    1.358    1.500   56.066   56.237
 grid_collocate_task_list            51  8.0   36.397   46.298   36.397   46.298
 grid_integrate_task_list            51 10.9   33.697   41.899   33.697   41.899
 x_to_yz                           1531 16.4    6.460    8.259   37.193   39.024
 rs_pw_transfer                     412 10.4    0.005    0.006   27.108   33.199
 cp_fm_triangular_multiply          150  8.0   28.066   28.412   28.066   28.412
 yz_to_x                            819 16.4    2.225    2.536   20.457   28.038
 density_rs2pw                       51  8.0    0.003    0.004   20.962   27.183
 qs_vxc_create                       51  8.9    0.001    0.002   25.279   25.593
 xc_vxc_pw_create                    51  9.9    0.434    0.532   25.278   25.592
 xc_pw_derive                       306 11.9    0.005    0.006   17.873   19.808
 mp_waitany                       18700 12.4   13.226   19.471   13.226   19.471
 rs_pw_transfer_RS2PW_200            53  9.9    3.455    3.862   13.235   19.351
 apply_poisson_operator_fft          51 10.9    0.001    0.001   16.423   16.709
 mp_alltoall_d11v                   721 10.2   10.238   15.814   10.238   15.814
 apply_inv_laplace_operator_fft     155 11.6    0.382    0.441   14.968   15.510
 potential_pw2rs                     51 10.9    0.015    0.017   14.510   14.615
 rs_gather_matrices                  51 10.9    0.062    0.079    8.705   14.203
 xc_pw_divergence                    51 10.9    0.003    0.003   11.948   13.378
 xc_rho_set_and_dset_create          51 10.9    0.252    0.296   12.436   13.185
 ps_implicit_compute_error_fft      102 10.9    0.641    0.796   11.068   11.868
 ps_implicit_compute_veps            51 10.9    0.296    0.349   11.332   11.516
 pw_scatter_p                      1684 15.4    9.438   11.030    9.438   11.030
 rs_pw_transfer_PW2RS_200            53 12.8    4.001    4.215    8.405    8.603
 gspace_mixing                       49  6.0    0.093    0.116    8.601    8.601
 pw_derive                         1224 13.1    7.753    8.253    7.753    8.253
 -------------------------------------------------------------------------------

 The number of warnings for this run is : 1
 
 -------------------------------------------------------------------------------
  **** **** ******  **  PROGRAM ENDED AT                 2023-12-02 11:22:48.311
 ***** ** ***  *** **   PROGRAM RAN ON                                     cu001
 **    ****   ******    PROGRAM RAN BY                                     jxzhu
 ***** **    ** ** **   PROGRAM PROCESS ID                                  4337
  **** **  *******  **  PROGRAM STOPPED IN /public/home/jxzhu/tmp_calc/8660927bb
                                           647ad1fb0be8b4888b82a052431eefb/calc/
                                           001400.000/search_lo.000000
