 DBCSR| CPU Multiplication driver                                           XSMM
 DBCSR| Multrec recursion limit                                              512
 DBCSR| Multiplication stack size                                           1000
 DBCSR| Maximum elements for images                                    UNLIMITED
 DBCSR| Multiplicative factor virtual images                                   1
 DBCSR| Use multiplication densification                                       T
 DBCSR| Multiplication size stacks                                             3
 DBCSR| Use memory pool for CPU allocation                                     F
 DBCSR| Number of 3D layers                                               SINGLE
 DBCSR| Use MPI memory allocation                                              F
 DBCSR| Use RMA algorithm                                                      F
 DBCSR| Use Communication thread                                               T
 DBCSR| Communication thread load                                             87
 DBCSR| MPI: My node id                                                        0
 DBCSR| MPI: Number of nodes                                                 128
 DBCSR| OMP: Current number of threads                                         1
 DBCSR| OMP: Max number of threads                                             1
 DBCSR| Split modifier for TAS multiplication algorithm                  1.0E+00


  **** **** ******  **  PROGRAM STARTED AT               2023-12-03 02:17:01.879
 ***** ** ***  *** **   PROGRAM STARTED ON                                 cu001
 **    ****   ******    PROGRAM STARTED BY                                 jxzhu
 ***** **    ** ** **   PROGRAM PROCESS ID                                 40003
  **** **  *******  **  PROGRAM STARTED IN /public/home/jxzhu/tmp_calc/7a9304d09
                                           f9a45badb43c792a824a0621c573445/calc/
                                           002400.000/search_hi.000000

 CP2K| version string:                                       CP2K version 2022.1
 CP2K| source code revision number:                                  git:2caeb6f
 CP2K| cp2kflags: omp libint fftw3 libxc elpa parallel mpi3 scalapack cosma xsmm
 CP2K|             plumed2 spglib mkl sirius libvori libbqb
 CP2K| is freely available from                            https://www.cp2k.org/
 CP2K| Program compiled at                           Mon Jul 3 17:37:06 CST 2023
 CP2K| Program compiled on                                                 mu003
 CP2K| Program compiled for                                                local
 CP2K| Data directory path                             /public/home/jxzhu/basis/
 CP2K| Input file name                                                 input.inp
 
 GLOBAL| Force Environment number                                              1
 GLOBAL| Basis set file name                                        BASIS_MOLOPT
 GLOBAL| Potential file name                                      GTH_POTENTIALS
 GLOBAL| MM Potential file name                                     MM_POTENTIAL
 GLOBAL| Coordinate file name                                          coord.xyz
 GLOBAL| Method name                                                        CP2K
 GLOBAL| Project name                                                       cp2k
 GLOBAL| Run type                                                   ENERGY_FORCE
 GLOBAL| FFT library                                                       FFTW3
 GLOBAL| Diagonalization library                                            ELPA
 GLOBAL| Minimum number of eigenvectors for ELPA usage                        16
 GLOBAL| Orthonormality check for eigenvectors                          DISABLED
 GLOBAL| Matrix multiplication library                                     COSMA
 GLOBAL| All-to-all communication in single precision                          F
 GLOBAL| FFTs using library dependent lengths                                  T
 GLOBAL| Grid backend                                                       AUTO
 GLOBAL| Global print level                                               MEDIUM
 GLOBAL| MPI I/O enabled                                                       T
 GLOBAL| Total number of message passing processes                           128
 GLOBAL| Number of threads for this process                                    1
 GLOBAL| This output is from process                                           0
 GLOBAL| Stack size for threads created by OpenMP (OMP_STACKSIZE)        default
 GLOBAL| CPU model name                 Intel(R) Xeon(R) Gold 6338 CPU @ 2.00GHz
 GLOBAL| CPUID                                                              1003

 MEMORY| system memory details [Kb]
 MEMORY|                        rank 0           min           max       average
 MEMORY| MemTotal            263619172     263619172     263619172     263619172
 MEMORY| MemFree             218615112     215906000     218617344     217260999
 MEMORY| Buffers                    20            20            36            28
 MEMORY| Cached                1745864        733256       1745864       1239560
 MEMORY| Slab                  1415436       1415436       1420060       1417748
 MEMORY| SReclaimable           242640        230892        242640        236766
 MEMORY| MemLikelyFree       220603636     216870184     220605868     218737353


 *** Fundamental physical constants (SI units) ***

 *** Literature: B. J. Mohr and B. N. Taylor,
 ***             CODATA recommended values of the fundamental physical
 ***             constants: 2006, Web Version 5.1
 ***             http://physics.nist.gov/constants

 Speed of light in vacuum [m/s]                             2.99792458000000E+08
 Magnetic constant or permeability of vacuum [N/A**2]       1.25663706143592E-06
 Electric constant or permittivity of vacuum [F/m]          8.85418781762039E-12
 Planck constant (h) [J*s]                                  6.62606896000000E-34
 Planck constant (h-bar) [J*s]                              1.05457162825177E-34
 Elementary charge [C]                                      1.60217648700000E-19
 Electron mass [kg]                                         9.10938215000000E-31
 Electron g factor [ ]                                     -2.00231930436220E+00
 Proton mass [kg]                                           1.67262163700000E-27
 Fine-structure constant                                    7.29735253760000E-03
 Rydberg constant [1/m]                                     1.09737315685270E+07
 Avogadro constant [1/mol]                                  6.02214179000000E+23
 Boltzmann constant [J/K]                                   1.38065040000000E-23
 Atomic mass unit [kg]                                      1.66053878200000E-27
 Bohr radius [m]                                            5.29177208590000E-11

 *** Conversion factors ***

 [u] -> [a.u.]                                              1.82288848426455E+03
 [Angstrom] -> [Bohr] = [a.u.]                              1.88972613288564E+00
 [a.u.] = [Bohr] -> [Angstrom]                              5.29177208590000E-01
 [a.u.] -> [s]                                              2.41888432650478E-17
 [a.u.] -> [fs]                                             2.41888432650478E-02
 [a.u.] -> [J]                                              4.35974393937059E-18
 [a.u.] -> [N]                                              8.23872205491840E-08
 [a.u.] -> [K]                                              3.15774647902944E+05
 [a.u.] -> [kJ/mol]                                         2.62549961709828E+03
 [a.u.] -> [kcal/mol]                                       6.27509468713739E+02
 [a.u.] -> [Pa]                                             2.94210107994716E+13
 [a.u.] -> [bar]                                            2.94210107994716E+08
 [a.u.] -> [atm]                                            2.90362800883016E+08
 [a.u.] -> [eV]                                             2.72113838565563E+01
 [a.u.] -> [Hz]                                             6.57968392072181E+15
 [a.u.] -> [1/cm] (wave numbers)                            2.19474631370540E+05
 [a.u./Bohr**2] -> [1/cm]                                   5.14048714338585E+03
 

 CELL_TOP| Volume [angstrom^3]:                                     17614.982639
 CELL_TOP| Vector a [angstrom    16.869     0.000     0.000   |a| =    16.869000
 CELL_TOP| Vector b [angstrom    -8.434    14.609     0.000   |b| =    16.869015
 CELL_TOP| Vector c [angstrom     0.000     0.000    71.478   |c| =    71.478000
 CELL_TOP| Angle (b,c), alpha [degree]:                                90.000000
 CELL_TOP| Angle (a,c), beta  [degree]:                                90.000000
 CELL_TOP| Angle (a,b), gamma [degree]:                               119.999970
 CELL_TOP| Numerically orthorhombic:                                          NO
 
 GENERATE|  Preliminary Number of Bonds generated:                             0
 GENERATE|  Achieved consistency in connectivity generation.

 CELL| Volume [angstrom^3]:                                         17614.982639
 CELL| Vector a [angstrom]:      16.869     0.000     0.000   |a| =    16.869000
 CELL| Vector b [angstrom]:      -8.434    14.609     0.000   |b| =    16.869015
 CELL| Vector c [angstrom]:       0.000     0.000    71.478   |c| =    71.478000
 CELL| Angle (b,c), alpha [degree]:                                    90.000000
 CELL| Angle (a,c), beta  [degree]:                                    90.000000
 CELL| Angle (a,b), gamma [degree]:                                   119.999970
 CELL| Numerically orthorhombic:                                              NO

 CELL_REF| Volume [angstrom^3]:                                     17614.982639
 CELL_REF| Vector a [angstrom    16.869     0.000     0.000   |a| =    16.869000
 CELL_REF| Vector b [angstrom    -8.434    14.609     0.000   |b| =    16.869015
 CELL_REF| Vector c [angstrom     0.000     0.000    71.478   |c| =    71.478000
 CELL_REF| Angle (b,c), alpha [degree]:                                90.000000
 CELL_REF| Angle (a,c), beta  [degree]:                                90.000000
 CELL_REF| Angle (a,b), gamma [degree]:                               119.999970
 CELL_REF| Numerically orthorhombic:                                          NO

 *******************************************************************************
 *******************************************************************************
 **                                                                           **
 **     #####                         ##              ##                      **
 **    ##   ##            ##          ##              ##                      **
 **   ##     ##                       ##            ######                    **
 **   ##     ##  ##   ##  ##   #####  ##  ##   ####   ##    #####    #####    **
 **   ##     ##  ##   ##  ##  ##      ## ##   ##      ##   ##   ##  ##   ##   **
 **   ##  ## ##  ##   ##  ##  ##      ####     ###    ##   ######   ######    **
 **    ##  ###   ##   ##  ##  ##      ## ##      ##   ##   ##       ##        **
 **     #######   #####   ##   #####  ##  ##  ####    ##    #####   ##        **
 **           ##                                                    ##        **
 **                                                                           **
 **                                                ... make the atoms dance   **
 **                                                                           **
 **            Copyright (C) by CP2K developers group (2000-2022)             **
 **                      J. Chem. Phys. 152, 194103 (2020)                    **
 **                                                                           **
 *******************************************************************************

 DFT| Spin restricted Kohn-Sham (RKS) calculation                            RKS
 DFT| Multiplicity                                                             1
 DFT| Number of spin states                                                    1
 DFT| Charge                                                                   0
 DFT| Self-interaction correction (SIC)                                       NO
 DFT| Cutoffs: density                                              1.000000E-10
 DFT|          gradient                                             1.000000E-10
 DFT|          tau                                                  1.000000E-10
 DFT|          cutoff_smoothing_range                               0.000000E+00
 DFT| XC density smoothing                                                  NONE
 DFT| XC derivatives                                                          PW

 FUNCTIONAL| PBE:
 FUNCTIONAL| J.P.Perdew, K.Burke, M.Ernzerhof, Phys. Rev. Letter, vol. 77, n 18,
 FUNCTIONAL|  pp. 3865-3868, (1996){spin unpolarized}                           

 vdW POTENTIAL|                                                   Pair Potential
 vdW POTENTIAL|          DFT-D3 (Version 3.1)
 vdW POTENTIAL|          Potential Form: S. Grimme et al, JCP 132: 154104 (2010)
 vdW POTENTIAL|          Zero Damping
 vdW POTENTIAL|          Cutoff Radius [Bohr]:                             20.00
 vdW POTENTIAL|          s6 Scaling Factor:                               1.0000
 vdW POTENTIAL|          sr6 Scaling Factor:                              1.2170
 vdW POTENTIAL|          s8 Scaling Factor:                               0.7220
 vdW POTENTIAL|          Cutoff for CN calculation:                   0.1000E-05

 QS| Method:                                                                 GPW
 QS| Density plane wave grid type                        NON-SPHERICAL FULLSPACE
 QS| Number of grid levels:                                                    4
 QS| Density cutoff [a.u.]:                                                200.0
 QS| Multi grid cutoff [a.u.]: 1) grid level                               200.0
 QS|                           2) grid level                                66.7
 QS|                           3) grid level                                22.2
 QS|                           4) grid level                                 7.4
 QS| Grid level progression factor:                                          3.0
 QS| Relative density cutoff [a.u.]:                                        20.0
 QS| Interaction thresholds: eps_pgf_orb:                                3.2E-07
 QS|                         eps_filter_matrix:                          0.0E+00
 QS|                         eps_core_charge:                            1.0E-15
 QS|                         eps_rho_gspace:                             1.0E-13
 QS|                         eps_rho_rspace:                             1.0E-13
 QS|                         eps_gvg_rspace:                             3.2E-07
 QS|                         eps_ppl:                                    1.0E-02
 QS|                         eps_ppnl:                                   3.2E-09


 ATOMIC KIND INFORMATION

  1. Atomic kind: O                                     Number of atoms:     102

     Orbital Basis Set                                        DZVP-MOLOPT-SR-GTH

       Number of orbital shell sets:                                           1
       Number of orbital shells:                                               5
       Number of primitive Cartesian functions:                                5
       Number of Cartesian basis functions:                                   14
       Number of spherical basis functions:                                   13
       Norm type:                                                              2

       Normalised Cartesian orbitals:

                        Set   Shell   Orbital            Exponent    Coefficient

                          1       1    2s               10.389228       0.396646
                                                         3.849621       0.208811
                                                         1.388401      -0.301641
                                                         0.496955      -0.274061
                                                         0.162492      -0.033677

                          1       2    3s               10.389228       0.303673
                                                         3.849621       0.240943
                                                         1.388401      -0.313066
                                                         0.496955      -0.043055
                                                         0.162492       0.213991

                          1       3    3px              10.389228      -1.530415
                                                         3.849621      -1.371928
                                                         1.388401      -0.761951
                                                         0.496955      -0.253695
                                                         0.162492      -0.035541
                          1       3    3py              10.389228      -1.530415
                                                         3.849621      -1.371928
                                                         1.388401      -0.761951
                                                         0.496955      -0.253695
                                                         0.162492      -0.035541
                          1       3    3pz              10.389228      -1.530415
                                                         3.849621      -1.371928
                                                         1.388401      -0.761951
                                                         0.496955      -0.253695
                                                         0.162492      -0.035541

                          1       4    4px              10.389228      -0.565392
                                                         3.849621      -0.038231
                                                         1.388401      -0.382373
                                                         0.496955       0.179070
                                                         0.162492       0.122714
                          1       4    4py              10.389228      -0.565392
                                                         3.849621      -0.038231
                                                         1.388401      -0.382373
                                                         0.496955       0.179070
                                                         0.162492       0.122714
                          1       4    4pz              10.389228      -0.565392
                                                         3.849621      -0.038231
                                                         1.388401      -0.382373
                                                         0.496955       0.179070
                                                         0.162492       0.122714

                          1       5    4dx2             10.389228       1.867377
                                                         3.849621       0.670994
                                                         1.388401       1.353441
                                                         0.496955       0.273538
                                                         0.162492       0.006620
                          1       5    4dxy             10.389228       3.234392
                                                         3.849621       1.162195
                                                         1.388401       2.344229
                                                         0.496955       0.473781
                                                         0.162492       0.011466
                          1       5    4dxz             10.389228       3.234392
                                                         3.849621       1.162195
                                                         1.388401       2.344229
                                                         0.496955       0.473781
                                                         0.162492       0.011466
                          1       5    4dy2             10.389228       1.867377
                                                         3.849621       0.670994
                                                         1.388401       1.353441
                                                         0.496955       0.273538
                                                         0.162492       0.006620
                          1       5    4dyz             10.389228       3.234392
                                                         3.849621       1.162195
                                                         1.388401       2.344229
                                                         0.496955       0.473781
                                                         0.162492       0.011466
                          1       5    4dz2             10.389228       1.867377
                                                         3.849621       0.670994
                                                         1.388401       1.353441
                                                         0.496955       0.273538
                                                         0.162492       0.006620

       Atomic covalent radius [Angstrom]:                                  0.730

       Atomic van der Waals radius [Angstrom]:                             1.520

     GTH Potential information for                                    GTH-PBE-q6

       Description:                       Goedecker-Teter-Hutter pseudopotential
                                           Goedecker et al., PRB 54, 1703 (1996)
                                          Hartwigsen et al., PRB 58, 3641 (1998)
                                                      Krack, TCA 114, 145 (2005)

       Gaussian exponent of the core charge distribution:               8.360253
       Electronic configuration (s p d ...):                               2   4

       Parameters of the local part of the GTH pseudopotential:

                          rloc        C1          C2          C3          C4
                        0.244554  -16.667215    2.487311

       Parameters of the non-local part of the GTH pseudopotential:

                   l      r(l)      h(i,j,l)

                   0    0.220956   18.337458
                   1    0.211332

  2. Atomic kind: H                                     Number of atoms:     204

     Orbital Basis Set                                        DZVP-MOLOPT-SR-GTH

       Number of orbital shell sets:                                           1
       Number of orbital shells:                                               3
       Number of primitive Cartesian functions:                                5
       Number of Cartesian basis functions:                                    5
       Number of spherical basis functions:                                    5
       Norm type:                                                              2

       Normalised Cartesian orbitals:

                        Set   Shell   Orbital            Exponent    Coefficient

                          1       1    2s               10.068468      -0.133023
                                                         2.680223      -0.177618
                                                         0.791502      -0.258419
                                                         0.239116      -0.107525
                                                         0.082193      -0.014019

                          1       2    3s               10.068468       0.344673
                                                         2.680223       1.819821
                                                         0.791502      -0.999069
                                                         0.239116       0.017430
                                                         0.082193       0.082660

                          1       3    3px              10.068468       0.155326
                                                         2.680223       0.367157
                                                         0.791502       0.311480
                                                         0.239116       0.080105
                                                         0.082193       0.033440
                          1       3    3py              10.068468       0.155326
                                                         2.680223       0.367157
                                                         0.791502       0.311480
                                                         0.239116       0.080105
                                                         0.082193       0.033440
                          1       3    3pz              10.068468       0.155326
                                                         2.680223       0.367157
                                                         0.791502       0.311480
                                                         0.239116       0.080105
                                                         0.082193       0.033440

       Atomic covalent radius [Angstrom]:                                  0.320

       Atomic van der Waals radius [Angstrom]:                             1.090

     GTH Potential information for                                    GTH-PBE-q1

       Description:                       Goedecker-Teter-Hutter pseudopotential
                                           Goedecker et al., PRB 54, 1703 (1996)
                                          Hartwigsen et al., PRB 58, 3641 (1998)
                                                      Krack, TCA 114, 145 (2005)

       Gaussian exponent of the core charge distribution:              12.500000
       Electronic configuration (s p d ...):                                   1

       Parameters of the local part of the GTH pseudopotential:

                          rloc        C1          C2          C3          C4
                        0.200000   -4.178900    0.724463

  3. Atomic kind: Pt                                    Number of atoms:     216

     Orbital Basis Set                      DZVP-A5-Q10-323-MOL-T1-DERIVED_SET-1

       Number of orbital shell sets:                                           1
       Number of orbital shells:                                               6
       Number of primitive Cartesian functions:                                5
       Number of Cartesian basis functions:                                   23
       Number of spherical basis functions:                                   20
       Norm type:                                                              2

       Normalised Cartesian orbitals:

                        Set   Shell   Orbital            Exponent    Coefficient

                          1       1    2s                2.521825       0.177473
                                                         1.453920      -0.063399
                                                         0.614053      -0.407089
                                                         0.232656       0.262254
                                                         0.074788       0.047371

                          1       2    3s                2.521825      -0.049056
                                                         1.453920       0.044904
                                                         0.614053      -0.009756
                                                         0.232656      -0.144709
                                                         0.074788       0.144085

                          1       3    3px               2.521825      -0.317572
                                                         1.453920       0.534826
                                                         0.614053      -0.489458
                                                         0.232656       0.245631
                                                         0.074788       0.018221
                          1       3    3py               2.521825      -0.317572
                                                         1.453920       0.534826
                                                         0.614053      -0.489458
                                                         0.232656       0.245631
                                                         0.074788       0.018221
                          1       3    3pz               2.521825      -0.317572
                                                         1.453920       0.534826
                                                         0.614053      -0.489458
                                                         0.232656       0.245631
                                                         0.074788       0.018221

                          1       4    4dx2              2.521825       3.008522
                                                         1.453920      -1.224251
                                                         0.614053       0.225691
                                                         0.232656       0.125144
                                                         0.074788      -0.015348
                          1       4    4dxy              2.521825       5.210912
                                                         1.453920      -2.120465
                                                         0.614053       0.390909
                                                         0.232656       0.216756
                                                         0.074788      -0.026584
                          1       4    4dxz              2.521825       5.210912
                                                         1.453920      -2.120465
                                                         0.614053       0.390909
                                                         0.232656       0.216756
                                                         0.074788      -0.026584
                          1       4    4dy2              2.521825       3.008522
                                                         1.453920      -1.224251
                                                         0.614053       0.225691
                                                         0.232656       0.125144
                                                         0.074788      -0.015348
                          1       4    4dyz              2.521825       5.210912
                                                         1.453920      -2.120465
                                                         0.614053       0.390909
                                                         0.232656       0.216756
                                                         0.074788      -0.026584
                          1       4    4dz2              2.521825       3.008522
                                                         1.453920      -1.224251
                                                         0.614053       0.225691
                                                         0.232656       0.125144
                                                         0.074788      -0.015348

                          1       5    5dx2              2.521825       0.698026
                                                         1.453920      -1.511486
                                                         0.614053      -0.335394
                                                         0.232656      -0.025564
                                                         0.074788      -0.002699
                          1       5    5dxy              2.521825       1.209017
                                                         1.453920      -2.617970
                                                         0.614053      -0.580920
                                                         0.232656      -0.044277
                                                         0.074788      -0.004674
                          1       5    5dxz              2.521825       1.209017
                                                         1.453920      -2.617970
                                                         0.614053      -0.580920
                                                         0.232656      -0.044277
                                                         0.074788      -0.004674
                          1       5    5dy2              2.521825       0.698026
                                                         1.453920      -1.511486
                                                         0.614053      -0.335394
                                                         0.232656      -0.025564
                                                         0.074788      -0.002699
                          1       5    5dyz              2.521825       1.209017
                                                         1.453920      -2.617970
                                                         0.614053      -0.580920
                                                         0.232656      -0.044277
                                                         0.074788      -0.004674
                          1       5    5dz2              2.521825       0.698026
                                                         1.453920      -1.511486
                                                         0.614053      -0.335394
                                                         0.232656      -0.025564
                                                         0.074788      -0.002699

                          1       6    6dx2              2.521825       0.831079
                                                         1.453920      -0.709226
                                                         0.614053      -0.137351
                                                         0.232656       0.068642
                                                         0.074788       0.011745
                          1       6    6dxy              2.521825       1.439472
                                                         1.453920      -1.228415
                                                         0.614053      -0.237899
                                                         0.232656       0.118891
                                                         0.074788       0.020343
                          1       6    6dxz              2.521825       1.439472
                                                         1.453920      -1.228415
                                                         0.614053      -0.237899
                                                         0.232656       0.118891
                                                         0.074788       0.020343
                          1       6    6dy2              2.521825       0.831079
                                                         1.453920      -0.709226
                                                         0.614053      -0.137351
                                                         0.232656       0.068642
                                                         0.074788       0.011745
                          1       6    6dyz              2.521825       1.439472
                                                         1.453920      -1.228415
                                                         0.614053      -0.237899
                                                         0.232656       0.118891
                                                         0.074788       0.020343
                          1       6    6dz2              2.521825       0.831079
                                                         1.453920      -0.709226
                                                         0.614053      -0.137351
                                                         0.232656       0.068642
                                                         0.074788       0.011745

       Atomic covalent radius [Angstrom]:                                  1.300

       Atomic van der Waals radius [Angstrom]:                             1.750

     GTH Potential information for                                   GTH-PBE-q10

       Description:                       Goedecker-Teter-Hutter pseudopotential
                                           Goedecker et al., PRB 54, 1703 (1996)
                                          Hartwigsen et al., PRB 58, 3641 (1998)
                                                      Krack, TCA 114, 145 (2005)

       Gaussian exponent of the core charge distribution:               1.317676
       Electronic configuration (s p d ...):                           1   0   9

       Parameters of the local part of the GTH pseudopotential:

                          rloc        C1          C2          C3          C4
                        0.616000   11.313635

       Parameters of the non-local part of the GTH pseudopotential:

                   l      r(l)      h(i,j,l)

                   0    0.550904    4.733491   -1.784594
                                   -1.784594    2.303901
                   1    0.674138    2.534798   -1.778066
                                   -1.778066    2.103836
                   2    0.457392   -7.264011    2.558665
                                    2.558665   -2.901253


 MOLECULE KIND INFORMATION


 All atoms are their own molecule, skipping detailed information


 TOTAL NUMBERS AND MAXIMUM NUMBERS

  Total number of            - Atomic kinds:                                   3
                             - Atoms:                                        522
                             - Shell sets:                                   522
                             - Shells:                                      2418
                             - Primitive Cartesian functions:               2610
                             - Cartesian basis functions:                   7416
                             - Spherical basis functions:                   6666

  Maximum angular momentum of- Orbital basis functions:                        2
                             - Local part of the GTH pseudopotential:          2
                             - Non-local part of the GTH pseudopotential:      4


 MODULE QUICKSTEP:  ATOMIC COORDINATES IN angstrom

 Atom  Kind  Element       X           Y           Z          Z(eff)       Mass
    1   1 O    8     -14.460001   11.580001   30.458001       6.0000     15.9994
    2   2 H    1     -14.380001   11.440001   31.457998       1.0000      1.0079
    3   2 H    1     -14.340000   10.710001   30.007997       1.0000      1.0079
    4   1 O    8      14.850000   14.660001   38.567998       6.0000     15.9994
    5   2 H    1      15.240001   14.290000   39.398000       1.0000      1.0079
    6   2 H    1      15.490000   14.550000   37.847997       1.0000      1.0079
    7   1 O    8      17.620001  -10.880001   39.687997       6.0000     15.9994
    8   2 H    1      18.280001  -11.470001   40.088001       1.0000      1.0079
    9   2 H    1      16.850000  -11.480000   39.347999       1.0000      1.0079
   10   1 O    8     -20.950001  -24.510002   37.597999       6.0000     15.9994
   11   2 H    1     -21.880001  -24.680002   37.588001       1.0000      1.0079
   12   2 H    1     -20.680000  -24.970001   36.687999       1.0000      1.0079
   13   1 O    8      -4.810000  -11.530000   32.387998       6.0000     15.9994
   14   2 H    1      -5.760000  -11.200000   32.597999       1.0000      1.0079
   15   2 H    1      -4.720000  -12.470001   32.717998       1.0000      1.0079
   16   1 O    8       4.030000   19.330002   32.587999       6.0000     15.9994
   17   2 H    1       3.970000   18.910000   31.667997       1.0000      1.0079
   18   2 H    1       3.510000   20.160000   32.577998       1.0000      1.0079
   19   1 O    8     -13.920001   21.940001   33.017999       6.0000     15.9994
   20   2 H    1     -13.490001   22.460001   33.727998       1.0000      1.0079
   21   2 H    1     -14.860001   22.210003   32.847997       1.0000      1.0079
   22   1 O    8       5.720000  -13.400001   32.937999       6.0000     15.9994
   23   2 H    1       6.610000  -13.800001   32.637998       1.0000      1.0079
   24   2 H    1       5.610001  -12.630000   32.287998       1.0000      1.0079
   25   1 O    8     -20.310001   37.680000   35.067998       6.0000     15.9994
   26   2 H    1     -19.390001   37.410004   35.317998       1.0000      1.0079
   27   2 H    1      -3.330000   38.680004   34.927999       1.0000      1.0079
   28   1 O    8      -0.370000   12.110001   32.677999       6.0000     15.9994
   29   2 H    1      -0.990000   12.830001   32.847997       1.0000      1.0079
   30   2 H    1      -0.530000   11.760000   31.777999       1.0000      1.0079
   31   1 O    8     -26.610001   -4.000000   29.997999       6.0000     15.9994
   32   2 H    1     -26.130001   -4.790000   30.247999       1.0000      1.0079
   33   2 H    1     -26.070002   -3.350000   29.527997       1.0000      1.0079
   34   1 O    8     -29.240000   15.380001   29.208001       6.0000     15.9994
   35   2 H    1     -37.520000   30.970001   29.558000       1.0000      1.0079
   36   2 H    1     -30.190001   15.210000   29.488000       1.0000      1.0079
   37   1 O    8     -10.120001    2.750000   38.628000       6.0000     15.9994
   38   2 H    1     -10.050000    3.040000   37.628000       1.0000      1.0079
   39   2 H    1     -10.160000    1.790000   38.587999       1.0000      1.0079
   40   1 O    8     -30.440002    7.970000   32.398000       6.0000     15.9994
   41   2 H    1     -30.500002    8.370000   31.487998       1.0000      1.0079
   42   2 H    1     -29.780003    8.470000   32.927999       1.0000      1.0079
   43   1 O    8     -14.020000   -0.430000   30.287996       6.0000     15.9994
   44   2 H    1     -13.050001   -0.330000   30.177999       1.0000      1.0079
   45   2 H    1     -14.320001   -0.970000   29.508001       1.0000      1.0079
   46   1 O    8     -31.390001   16.620001   34.577998       6.0000     15.9994
   47   2 H    1     -31.220001   16.180000   35.407998       1.0000      1.0079
   48   2 H    1     -31.160002   15.950001   33.847999       1.0000      1.0079
   49   1 O    8      -6.690001   -8.560000   39.568000       6.0000     15.9994
   50   2 H    1      -7.350000   -8.440001   40.287999       1.0000      1.0079
   51   2 H    1      -5.840001   -8.320000   39.988000       1.0000      1.0079
   52   1 O    8      40.820004   -8.960000   36.257999       6.0000     15.9994
   53   2 H    1      41.040001   -7.970000   36.338001       1.0000      1.0079
   54   2 H    1      40.700001   -9.140000   35.287999       1.0000      1.0079
   55   1 O    8       9.130000  -10.180000   37.647998       6.0000     15.9994
   56   2 H    1       8.430000   -9.600000   37.057998       1.0000      1.0079
   57   2 H    1       9.530001   -9.510000   38.218000       1.0000      1.0079
   58   1 O    8       5.890000  -20.730001   39.587999       6.0000     15.9994
   59   2 H    1       6.840000  -20.930002   39.638000       1.0000      1.0079
   60   2 H    1       5.410000  -21.440001   39.997999       1.0000      1.0079
   61   1 O    8      -5.260000   23.720001   29.997999       6.0000     15.9994
   62   2 H    1      -5.780000   23.230001   29.317998       1.0000      1.0079
   63   2 H    1      -4.290000   23.500002   29.907998       1.0000      1.0079
   64   1 O    8       6.830000   -7.900000   29.947999       6.0000     15.9994
   65   2 H    1       6.720000   -7.920001   28.947999       1.0000      1.0079
   66   2 H    1       7.310000   -8.810000   30.077997       1.0000      1.0079
   67   1 O    8     -22.660000   11.930000   31.857999       6.0000     15.9994
   68   2 H    1     -21.740000   11.580001   32.187997       1.0000      1.0079
   69   2 H    1     -22.540001   12.920000   31.548000       1.0000      1.0079
   70   1 O    8      22.610001    8.770000   30.587999       6.0000     15.9994
   71   2 H    1      22.630001    8.980000   31.587999       1.0000      1.0079
   72   2 H    1      23.020000    7.880001   30.378000       1.0000      1.0079
   73   1 O    8      38.410000    5.290000   29.058000       6.0000     15.9994
   74   2 H    1      39.300003    5.640000   29.297998       1.0000      1.0079
   75   2 H    1      38.300003    4.350000   29.357999       1.0000      1.0079
   76   1 O    8      12.500000   36.660000   37.347999       6.0000     15.9994
   77   2 H    1      12.800001   37.000004   36.537999       1.0000      1.0079
   78   2 H    1      29.480001   35.670002   37.277999       1.0000      1.0079
   79   1 O    8     -14.790001   31.380003   29.907998       6.0000     15.9994
   80   2 H    1     -14.600000   30.380001   30.017999       1.0000      1.0079
   81   2 H    1     -14.840001   31.530001   28.907998       1.0000      1.0079
   82   1 O    8       0.360000   -3.690000   32.917997       6.0000     15.9994
   83   2 H    1       0.470000   -3.570000   33.908000       1.0000      1.0079
   84   2 H    1       1.160000   -3.330000   32.468000       1.0000      1.0079
   85   1 O    8       5.070000    5.660000   32.968000       6.0000     15.9994
   86   2 H    1      -3.980000   20.990002   32.707998       1.0000      1.0079
   87   2 H    1       4.650001    4.780000   32.988000       1.0000      1.0079
   88   1 O    8      18.220001   -4.330000   29.477998       6.0000     15.9994
   89   2 H    1      19.020000   -3.910000   29.797998       1.0000      1.0079
   90   2 H    1      17.480000   -3.740000   29.697999       1.0000      1.0079
   91   1 O    8       1.450000   -7.110000   37.747999       6.0000     15.9994
   92   2 H    1       2.420000   -6.920000   37.387998       1.0000      1.0079
   93   2 H    1       0.850000   -6.880000   37.007999       1.0000      1.0079
   94   1 O    8      17.420002    2.130000   34.857997       6.0000     15.9994
   95   2 H    1      16.580002    1.580000   34.968000       1.0000      1.0079
   96   2 H    1      17.370001    2.760000   35.648000       1.0000      1.0079
   97   1 O    8      -6.230001   -3.320000   35.217998       6.0000     15.9994
   98   2 H    1      -7.140000   -3.640000   35.087999       1.0000      1.0079
   99   2 H    1      -6.240000   -2.890000   36.128000       1.0000      1.0079
  100   1 O    8       8.170000  -12.440001   39.337999       6.0000     15.9994
  101   2 H    1       8.880001  -13.210001   39.387998       1.0000      1.0079
  102   2 H    1       8.510000  -11.700001   38.767999       1.0000      1.0079
  103   1 O    8      -4.060000  -13.900002   33.587999       6.0000     15.9994
  104   2 H    1      -4.900000  -14.430000   33.837999       1.0000      1.0079
  105   2 H    1      -4.090000  -13.400001   34.477998       1.0000      1.0079
  106   1 O    8      33.320004  -10.030001   32.437999       6.0000     15.9994
  107   2 H    1      32.389999  -10.110001   32.658000       1.0000      1.0079
  108   2 H    1      33.910004   -9.860001   33.267999       1.0000      1.0079
  109   1 O    8     -38.520004   23.640001   35.277997       6.0000     15.9994
  110   2 H    1     -22.260000   24.470001   35.287999       1.0000      1.0079
  111   2 H    1     -39.020000   23.010002   35.757999       1.0000      1.0079
  112   1 O    8      19.550001  -14.580001   36.427999       6.0000     15.9994
  113   2 H    1      20.060001  -15.040001   35.757999       1.0000      1.0079
  114   2 H    1      20.120001  -14.400001   37.168001       1.0000      1.0079
  115   1 O    8       5.180000   12.670001   30.328000       6.0000     15.9994
  116   2 H    1       4.400000   12.100000   30.177999       1.0000      1.0079
  117   2 H    1       4.950000   13.550000   29.898000       1.0000      1.0079
  118   1 O    8       0.860000   18.780001   34.927999       6.0000     15.9994
  119   2 H    1       1.160000   19.020000   35.897998       1.0000      1.0079
  120   2 H    1       1.300000   17.880001   34.708000       1.0000      1.0079
  121   1 O    8       7.420001   -6.660000   39.267999       6.0000     15.9994
  122   2 H    1       6.880000   -7.360001   39.607999       1.0000      1.0079
  123   2 H    1       8.010000   -6.310000   39.937999       1.0000      1.0079
  124   1 O    8     -16.430000   12.900001   29.047998       6.0000     15.9994
  125   2 H    1     -16.300001   13.820001   29.497999       1.0000      1.0079
  126   2 H    1     -15.700001   12.330000   29.537999       1.0000      1.0079
  127   1 O    8       1.200000  -11.010000   30.357999       6.0000     15.9994
  128   2 H    1       0.310000  -10.900001   30.837999       1.0000      1.0079
  129   2 H    1       0.830000  -11.490001   29.567998       1.0000      1.0079
  130   1 O    8      -3.770000   -8.030001   37.447999       6.0000     15.9994
  131   2 H    1      -3.240000   -7.610001   38.148000       1.0000      1.0079
  132   2 H    1      -4.530000   -7.400000   37.477998       1.0000      1.0079
  133   1 O    8     -18.040001   45.380001   30.017999       6.0000     15.9994
  134   2 H    1     -18.850000   45.919998   30.147996       1.0000      1.0079
  135   2 H    1     -17.850000   45.510002   29.097997       1.0000      1.0079
  136   1 O    8      13.800001   32.370003   30.057996       6.0000     15.9994
  137   2 H    1      22.260000   18.350000   29.278001       1.0000      1.0079
  138   2 H    1      -2.110000   32.000000   30.017999       1.0000      1.0079
  139   1 O    8      -2.540000   -5.390000   33.037999       6.0000     15.9994
  140   2 H    1      -1.630000   -5.730000   33.318000       1.0000      1.0079
  141   2 H    1      -2.400000   -4.380000   33.097999       1.0000      1.0079
  142   1 O    8       7.560000   -6.300001   36.697997       6.0000     15.9994
  143   2 H    1       8.440001   -6.350000   36.317998       1.0000      1.0079
  144   2 H    1       7.700000   -6.500000   37.667999       1.0000      1.0079
  145   1 O    8      -2.220000   20.640001   35.398000       6.0000     15.9994
  146   2 H    1      -2.930000   21.049999   35.947999       1.0000      1.0079
  147   2 H    1      -2.670000   20.590000   34.537999       1.0000      1.0079
  148   1 O    8     -32.550003    4.290000   32.937999       6.0000     15.9994
  149   2 H    1     -32.740002    3.490000   33.447999       1.0000      1.0079
  150   2 H    1     -32.750000    5.110001   33.488000       1.0000      1.0079
  151   1 O    8     -16.440001   -6.550000   32.907998       6.0000     15.9994
  152   2 H    1     -16.480001   -6.650000   33.917999       1.0000      1.0079
  153   2 H    1     -16.250002   -5.630000   32.847997       1.0000      1.0079
  154   1 O    8      -1.630000   -3.910000   29.097997       6.0000     15.9994
  155   2 H    1      -1.980000   -4.710000   29.547998       1.0000      1.0079
  156   2 H    1      -2.260000   -3.160000   29.308000       1.0000      1.0079
  157   1 O    8      -1.030000   10.920000   38.817998       6.0000     15.9994
  158   2 H    1      -0.420000   11.260000   38.107999       1.0000      1.0079
  159   2 H    1      -1.190000   11.730001   39.337999       1.0000      1.0079
  160   1 O    8      15.400001   18.290001   36.187999       6.0000     15.9994
  161   2 H    1      15.050001   19.210001   36.067998       1.0000      1.0079
  162   2 H    1      16.310001   18.290001   35.667999       1.0000      1.0079
  163   1 O    8      24.650002   46.210003   29.827997       6.0000     15.9994
  164   2 H    1      25.270002   47.000004   30.007997       1.0000      1.0079
  165   2 H    1      25.250000   45.510002   30.098001       1.0000      1.0079
  166   1 O    8      10.760001   -6.550000   37.517999       6.0000     15.9994
  167   2 H    1      10.280000   -7.160000   38.077998       1.0000      1.0079
  168   2 H    1      10.750000   -5.670000   38.037999       1.0000      1.0079
  169   1 O    8     -27.889999  -12.470001   37.767999       6.0000     15.9994
  170   2 H    1     -27.160000  -12.390001   38.397998       1.0000      1.0079
  171   2 H    1     -28.540001  -11.690001   37.927999       1.0000      1.0079
  172   1 O    8     -12.460001    3.810000   39.647998       6.0000     15.9994
  173   2 H    1     -11.530000    3.640000   39.437999       1.0000      1.0079
  174   2 H    1     -12.820001    4.000000   38.697999       1.0000      1.0079
  175   1 O    8      -8.260000   -5.360000   33.388000       6.0000     15.9994
  176   2 H    1      -8.790001   -4.520000   33.307998       1.0000      1.0079
  177   2 H    1      -8.300000   -5.710001   32.507999       1.0000      1.0079
  178   1 O    8     -24.250002   11.800001   35.418001       6.0000     15.9994
  179   2 H    1     -23.310001   11.870001   35.848001       1.0000      1.0079
  180   2 H    1     -24.850002   12.030001   36.117999       1.0000      1.0079
  181   1 O    8       8.610001   19.410002   30.587999       6.0000     15.9994
  182   2 H    1       9.410001   19.910000   30.187997       1.0000      1.0079
  183   2 H    1      17.310001    4.580000   31.548000       1.0000      1.0079
  184   1 O    8      -3.030000   13.770000   29.947999       6.0000     15.9994
  185   2 H    1      -2.490000   14.550000   29.817998       1.0000      1.0079
  186   2 H    1      -3.020000   13.380001   29.047998       1.0000      1.0079
  187   1 O    8     -18.960001    5.420001   33.637998       6.0000     15.9994
  188   2 H    1     -18.320002    5.750000   33.017999       1.0000      1.0079
  189   2 H    1     -19.800001    5.340000   33.147998       1.0000      1.0079
  190   1 O    8      24.940002    7.920001   35.797998       6.0000     15.9994
  191   2 H    1      24.290001    8.620001   36.087999       1.0000      1.0079
  192   2 H    1      24.420002    7.120000   35.637998       1.0000      1.0079
  193   1 O    8      -5.990000    5.830000   29.477998       6.0000     15.9994
  194   2 H    1      -6.370000    5.030000   29.878000       1.0000      1.0079
  195   2 H    1      -5.200000    6.220000   29.937997       1.0000      1.0079
  196   1 O    8      12.230001  -14.530001   37.238000       6.0000     15.9994
  197   2 H    1      12.520000  -13.740001   36.727998       1.0000      1.0079
  198   2 H    1      12.950001  -14.760000   37.857999       1.0000      1.0079
  199   1 O    8     -14.640001  -16.800001   32.857999       6.0000     15.9994
  200   2 H    1     -15.630001  -16.750000   32.787999       1.0000      1.0079
  201   2 H    1     -14.540001  -17.230000   33.777999       1.0000      1.0079
  202   1 O    8      12.190001   12.100000   36.367997       6.0000     15.9994
  203   2 H    1      12.180000   13.110001   36.537999       1.0000      1.0079
  204   2 H    1      12.160001   11.690001   37.238000       1.0000      1.0079
  205   1 O    8       1.620000   39.430000   39.347999       6.0000     15.9994
  206   2 H    1       0.710000   39.440002   39.078000       1.0000      1.0079
  207   2 H    1       2.120000   40.090004   38.757999       1.0000      1.0079
  208   1 O    8       0.480000   -7.130001   29.247999       6.0000     15.9994
  209   2 H    1      -7.750000    8.440001   29.438001       1.0000      1.0079
  210   2 H    1       1.300000   -7.700000   29.287999       1.0000      1.0079
  211   1 O    8      21.790001   13.510000   35.027999       6.0000     15.9994
  212   2 H    1      13.680000   27.370003   34.317998       1.0000      1.0079
  213   2 H    1      14.140000   28.720001   35.067998       1.0000      1.0079
  214   1 O    8      18.230001    0.070000   38.578000       6.0000     15.9994
  215   2 H    1      17.610001   -0.680000   38.667999       1.0000      1.0079
  216   2 H    1      18.990000   -0.110000   37.958000       1.0000      1.0079
  217   1 O    8      -4.300000    0.460000   38.718000       6.0000     15.9994
  218   2 H    1      -3.460000    0.780000   38.297998       1.0000      1.0079
  219   2 H    1      -4.010000   -0.210000   39.378000       1.0000      1.0079
  220   1 O    8     -40.210003   29.750002   30.427999       6.0000     15.9994
  221   2 H    1     -40.410004   30.700001   30.477998       1.0000      1.0079
  222   2 H    1     -39.660000   29.620001   31.277999       1.0000      1.0079
  223   1 O    8       0.350000    8.370000   30.558000       6.0000     15.9994
  224   2 H    1      -0.380000    7.760000   30.388002       1.0000      1.0079
  225   2 H    1       1.120000    7.740001   30.398000       1.0000      1.0079
  226   1 O    8      15.000001  -28.190002   35.298000       6.0000     15.9994
  227   2 H    1      14.440001  -27.620001   34.728000       1.0000      1.0079
  228   2 H    1      14.750000  -27.780001   36.177999       1.0000      1.0079
  229   1 O    8      11.030001   -2.600000   37.717998       6.0000     15.9994
  230   2 H    1      12.080001   -2.490000   37.607999       1.0000      1.0079
  231   2 H    1      10.750000   -1.700000   38.048000       1.0000      1.0079
  232   1 O    8     -14.980001   29.320002   34.057998       6.0000     15.9994
  233   2 H    1     -15.240001   30.120001   34.697999       1.0000      1.0079
  234   2 H    1     -15.330001   28.549999   34.517999       1.0000      1.0079
  235   1 O    8      16.520000   14.400001   36.208000       6.0000     15.9994
  236   2 H    1      16.220001   14.780001   35.298000       1.0000      1.0079
  237   2 H    1      17.440001   14.660001   36.257999       1.0000      1.0079
  238   1 O    8       8.260000   14.990001   32.208000       6.0000     15.9994
  239   2 H    1       8.310000   14.310001   31.537999       1.0000      1.0079
  240   2 H    1       8.980000   14.770001   32.828000       1.0000      1.0079
  241   1 O    8      36.050003    6.250000   30.067998       6.0000     15.9994
  242   2 H    1      36.320004    6.410000   30.967998       1.0000      1.0079
  243   2 H    1      36.850002    5.980001   29.587999       1.0000      1.0079
  244   1 O    8      12.070000  -17.889999   38.917999       6.0000     15.9994
  245   2 H    1      12.500000  -18.780001   39.238000       1.0000      1.0079
  246   2 H    1      11.130000  -18.020000   39.208000       1.0000      1.0079
  247   1 O    8       4.730000  -11.150000   35.147998       6.0000     15.9994
  248   2 H    1       5.060000  -10.370001   34.677999       1.0000      1.0079
  249   2 H    1       3.850000  -11.410000   34.657998       1.0000      1.0079
  250   1 O    8       1.460000    6.610000   34.317998       6.0000     15.9994
  251   2 H    1       1.790000    6.450000   35.217998       1.0000      1.0079
  252   2 H    1       1.910000    7.340000   33.917999       1.0000      1.0079
  253   1 O    8      -6.730001    4.800000   37.298000       6.0000     15.9994
  254   2 H    1     -15.290001   20.360001   37.567998       1.0000      1.0079
  255   2 H    1      -7.050000    4.180000   38.007999       1.0000      1.0079
  256   1 O    8     -26.660002    0.240000   33.537998       6.0000     15.9994
  257   2 H    1     -26.270000    0.920000   32.988000       1.0000      1.0079
  258   2 H    1     -27.600002    0.320000   33.587999       1.0000      1.0079
  259   1 O    8       6.050000  -17.200001   32.977998       6.0000     15.9994
  260   2 H    1       5.700001  -16.990002   32.107999       1.0000      1.0079
  261   2 H    1       6.980000  -17.390001   32.798000       1.0000      1.0079
  262   1 O    8     -20.950001    7.530000   30.597999       6.0000     15.9994
  263   2 H    1     -21.280001    7.460001   31.557998       1.0000      1.0079
  264   2 H    1     -20.000000    7.290000   30.597999       1.0000      1.0079
  265   1 O    8     -11.950001    2.830000   30.207998       6.0000     15.9994
  266   2 H    1     -12.590000    2.800000   30.967998       1.0000      1.0079
  267   2 H    1     -12.270001    2.230000   29.497999       1.0000      1.0079
  268   1 O    8      -8.690001   12.470001   37.907998       6.0000     15.9994
  269   2 H    1      -9.640000   12.530001   38.157998       1.0000      1.0079
  270   2 H    1      -8.440001   11.820001   38.597999       1.0000      1.0079
  271   1 O    8       5.400000   -3.490000   34.708000       6.0000     15.9994
  272   2 H    1       5.390000   -3.220000   33.767999       1.0000      1.0079
  273   2 H    1       4.720000   -2.970000   35.158000       1.0000      1.0079
  274   1 O    8      15.160000   20.790001   30.187997       6.0000     15.9994
  275   2 H    1      15.930000   21.210001   29.657998       1.0000      1.0079
  276   2 H    1      15.660001   20.410002   30.977998       1.0000      1.0079
  277   1 O    8      -3.040000   12.110001   32.117997       6.0000     15.9994
  278   2 H    1      -2.970000   11.420001   31.478000       1.0000      1.0079
  279   2 H    1      -3.070000   12.870001   31.578000       1.0000      1.0079
  280   1 O    8      11.590000   29.620001   32.728000       6.0000     15.9994
  281   2 H    1      11.460000   28.660002   32.988000       1.0000      1.0079
  282   2 H    1      12.630000   29.710003   32.847997       1.0000      1.0079
  283   1 O    8      11.590000  -39.500004   37.028001       6.0000     15.9994
  284   2 H    1      12.070000  -38.690002   36.867999       1.0000      1.0079
  285   2 H    1      10.580001  -39.320000   37.068000       1.0000      1.0079
  286   1 O    8      -3.890000   16.850000   35.757999       6.0000     15.9994
  287   2 H    1      -4.450000   17.570002   36.148000       1.0000      1.0079
  288   2 H    1      -3.060000   17.350002   35.848001       1.0000      1.0079
  289   1 O    8      -0.370000   -1.110000   29.827997       6.0000     15.9994
  290   2 H    1     -18.040001   -1.690000   29.907998       1.0000      1.0079
  291   2 H    1      -0.450000   -0.520000   29.008001       1.0000      1.0079
  292   1 O    8       4.820000   23.680000   39.247999       6.0000     15.9994
  293   2 H    1       4.570000   23.020000   38.597999       1.0000      1.0079
  294   2 H    1       5.820000   23.690002   39.227998       1.0000      1.0079
  295   1 O    8       5.980001  -19.650002   36.767999       6.0000     15.9994
  296   2 H    1       5.200000  -19.940001   36.277999       1.0000      1.0079
  297   2 H    1       5.920000  -19.840000   37.697999       1.0000      1.0079
  298   1 O    8     -17.150000   11.650001   36.367997       6.0000     15.9994
  299   2 H    1     -17.280001   12.610001   36.107999       1.0000      1.0079
  300   2 H    1     -17.950001   11.280001   35.937997       1.0000      1.0079
  301   1 O    8      -3.940000   10.070001   29.278001       6.0000     15.9994
  302   2 H    1      -2.930000   10.210000   29.337999       1.0000      1.0079
  303   2 H    1      -4.160000    9.100000   29.477998       1.0000      1.0079
  304   1 O    8      30.389999   -2.620000   37.197999       6.0000     15.9994
  305   2 H    1      30.180000   -2.110000   36.347999       1.0000      1.0079
  306   2 H    1      30.720001   -3.470000   36.798000       1.0000      1.0079
  307   3 Pt  78       1.590000    0.610000   26.737996      10.0000    195.0840
  308   3 Pt  78       4.350000    0.720000   26.878000      10.0000    195.0840
  309   3 Pt  78       7.050000    0.670000   26.857999      10.0000    195.0840
  310   3 Pt  78      10.010000    0.620000   26.727998      10.0000    195.0840
  311   3 Pt  78      12.770000    0.650000   26.757997      10.0000    195.0840
  312   3 Pt  78      15.590000    0.800000   26.778001      10.0000    195.0840
  313   3 Pt  78       2.910000    3.260000   26.797998      10.0000    195.0840
  314   3 Pt  78       5.730000    3.080000   26.778001      10.0000    195.0840
  315   3 Pt  78       8.590000    3.070000   26.718000      10.0000    195.0840
  316   3 Pt  78      11.470001    2.980000   26.628000      10.0000    195.0840
  317   3 Pt  78      14.180001    3.130000   26.757997      10.0000    195.0840
  318   3 Pt  78       0.100000    3.050000   26.887998      10.0000    195.0840
  319   3 Pt  78       4.430000    5.590000   26.907998      10.0000    195.0840
  320   3 Pt  78       7.190001    5.540000   26.878000      10.0000    195.0840
  321   3 Pt  78       9.990001    5.380001   26.648000      10.0000    195.0840
  322   3 Pt  78      12.740001    5.490000   26.757997      10.0000    195.0840
  323   3 Pt  78      -1.260000    5.530000   26.878000      10.0000    195.0840
  324   3 Pt  78       1.460000    5.610001   26.767999      10.0000    195.0840
  325   3 Pt  78       5.810000    7.910000   26.787999      10.0000    195.0840
  326   3 Pt  78       8.690001    7.820001   26.957998      10.0000    195.0840
  327   3 Pt  78      11.420001    7.850000   26.827997      10.0000    195.0840
  328   3 Pt  78      -2.650000    7.840000   26.808000      10.0000    195.0840
  329   3 Pt  78       0.150000    8.050001   26.718000      10.0000    195.0840
  330   3 Pt  78       3.000000    7.960001   26.757997      10.0000    195.0840
  331   3 Pt  78       7.210000   10.350000   26.808000      10.0000    195.0840
  332   3 Pt  78       9.970000   10.140000   27.037999      10.0000    195.0840
  333   3 Pt  78      -4.050000   10.440001   26.887998      10.0000    195.0840
  334   3 Pt  78      -1.340000   10.330000   26.787999      10.0000    195.0840
  335   3 Pt  78       1.590000   10.310000   26.708001      10.0000    195.0840
  336   3 Pt  78       4.350000   10.440001   26.718000      10.0000    195.0840
  337   3 Pt  78       8.570001   12.880001   26.727998      10.0000    195.0840
  338   3 Pt  78      -5.500000   12.890000   26.938001      10.0000    195.0840
  339   3 Pt  78      -2.640000   12.860001   26.867997      10.0000    195.0840
  340   3 Pt  78       0.270000   12.860001   26.947999      10.0000    195.0840
  341   3 Pt  78       3.050000   12.840000   26.778001      10.0000    195.0840
  342   3 Pt  78       5.740000   12.890000   26.767999      10.0000    195.0840
  343   3 Pt  78       0.100000    1.570000   24.348001      10.0000    195.0840
  344   3 Pt  78       3.030000    1.650000   24.527997      10.0000    195.0840
  345   3 Pt  78       5.830000    1.470000   24.367997      10.0000    195.0840
  346   3 Pt  78       8.610001    1.540000   24.418001      10.0000    195.0840
  347   3 Pt  78      11.450001    1.450000   24.337999      10.0000    195.0840
  348   3 Pt  78      14.220000    1.500000   24.378000      10.0000    195.0840
  349   3 Pt  78       1.540000    3.970000   24.578000      10.0000    195.0840
  350   3 Pt  78       4.560000    3.970000   24.527997      10.0000    195.0840
  351   3 Pt  78       7.230001    3.930000   24.477998      10.0000    195.0840
  352   3 Pt  78      10.190001    3.970000   24.308000      10.0000    195.0840
  353   3 Pt  78      12.870001    3.870000   24.418001      10.0000    195.0840
  354   3 Pt  78      -1.290000    3.900000   24.508001      10.0000    195.0840
  355   3 Pt  78       2.940000    6.340000   24.497999      10.0000    195.0840
  356   3 Pt  78       5.800000    6.340000   24.628000      10.0000    195.0840
  357   3 Pt  78       8.620001    6.350000   24.558000      10.0000    195.0840
  358   3 Pt  78      11.460000    6.360001   24.427999      10.0000    195.0840
  359   3 Pt  78      -2.680000    6.430000   24.447999      10.0000    195.0840
  360   3 Pt  78       0.100000    6.420000   24.427999      10.0000    195.0840
  361   3 Pt  78       4.450000    8.710001   24.418001      10.0000    195.0840
  362   3 Pt  78       7.230001    8.820001   24.527997      10.0000    195.0840
  363   3 Pt  78       9.900001    8.820001   24.617997      10.0000    195.0840
  364   3 Pt  78      -4.080000    8.800000   24.477998      10.0000    195.0840
  365   3 Pt  78      -1.290000    8.790001   24.497999      10.0000    195.0840
  366   3 Pt  78       1.540000    8.860001   24.447999      10.0000    195.0840
  367   3 Pt  78       5.770000   11.140001   24.457998      10.0000    195.0840
  368   3 Pt  78       8.560000   11.300000   24.527997      10.0000    195.0840
  369   3 Pt  78      -5.530000   11.360001   24.607999      10.0000    195.0840
  370   3 Pt  78      -2.740000   11.230000   24.537999      10.0000    195.0840
  371   3 Pt  78       0.050000   11.240001   24.477998      10.0000    195.0840
  372   3 Pt  78       2.960000   11.250000   24.378000      10.0000    195.0840
  373   3 Pt  78       7.180000   13.700001   24.517999      10.0000    195.0840
  374   3 Pt  78      -6.940000   13.820001   24.457998      10.0000    195.0840
  375   3 Pt  78      -4.080000   13.680000   24.587999      10.0000    195.0840
  376   3 Pt  78      -1.300000   13.640001   24.497999      10.0000    195.0840
  377   3 Pt  78       1.570000   13.690001   24.517999      10.0000    195.0840
  378   3 Pt  78       4.430000   13.640001   24.407998      10.0000    195.0840
  379   3 Pt  78      -8.250000   14.520000   22.157998      10.0000    195.0840
  380   3 Pt  78      -5.410000   14.560001   22.287999      10.0000    195.0840
  381   3 Pt  78      -2.610000   14.440001   22.168001      10.0000    195.0840
  382   3 Pt  78       0.130000   14.360001   22.077997      10.0000    195.0840
  383   3 Pt  78       3.000000   14.510001   22.067998      10.0000    195.0840
  384   3 Pt  78       5.830000   14.550000   22.007997      10.0000    195.0840
  385   3 Pt  78       1.540000    2.410000   22.217996      10.0000    195.0840
  386   3 Pt  78       4.470000    2.440000   22.177999      10.0000    195.0840
  387   3 Pt  78       7.260000    2.310000   22.037999      10.0000    195.0840
  388   3 Pt  78      10.030001    2.200000   22.058000      10.0000    195.0840
  389   3 Pt  78      12.920000    2.320000   22.058000      10.0000    195.0840
  390   3 Pt  78      -1.210000    2.310000   22.157998      10.0000    195.0840
  391   3 Pt  78       3.130000    4.840000   22.157998      10.0000    195.0840
  392   3 Pt  78       5.900001    4.850000   22.187997      10.0000    195.0840
  393   3 Pt  78       8.710001    4.810000   22.058000      10.0000    195.0840
  394   3 Pt  78      11.420001    4.730000   22.058000      10.0000    195.0840
  395   3 Pt  78      -2.630000    4.770000   22.157998      10.0000    195.0840
  396   3 Pt  78       0.230000    4.740000   22.217996      10.0000    195.0840
  397   3 Pt  78       4.450000    7.260000   22.147996      10.0000    195.0840
  398   3 Pt  78       7.210000    7.150001   22.147996      10.0000    195.0840
  399   3 Pt  78       9.990001    7.260000   22.247999      10.0000    195.0840
  400   3 Pt  78      -4.120000    7.210000   22.128000      10.0000    195.0840
  401   3 Pt  78      -1.160000    7.170000   22.087999      10.0000    195.0840
  402   3 Pt  78       1.620000    7.160000   22.147996      10.0000    195.0840
  403   3 Pt  78       5.810000    9.750000   22.147996      10.0000    195.0840
  404   3 Pt  78       8.630000    9.660000   22.257997      10.0000    195.0840
  405   3 Pt  78      -5.400000    9.730001   22.317998      10.0000    195.0840
  406   3 Pt  78      -2.580000    9.580001   22.197999      10.0000    195.0840
  407   3 Pt  78       0.330000    9.610001   22.117997      10.0000    195.0840
  408   3 Pt  78       3.020000    9.670001   22.098001      10.0000    195.0840
  409   3 Pt  78       7.230001   12.100000   22.077997      10.0000    195.0840
  410   3 Pt  78      -6.890000   12.110001   22.267999      10.0000    195.0840
  411   3 Pt  78      -4.020000   12.040001   22.187997      10.0000    195.0840
  412   3 Pt  78      -1.260000   11.980001   22.177999      10.0000    195.0840
  413   3 Pt  78       1.560000   12.080001   22.077997      10.0000    195.0840
  414   3 Pt  78       4.340000   12.110001   22.087999      10.0000    195.0840
  415   3 Pt  78       1.560000    0.770000   19.940000      10.0000    195.0840
  416   3 Pt  78       4.420000    0.660000   20.020000      10.0000    195.0840
  417   3 Pt  78       7.190001    0.680000   19.830000      10.0000    195.0840
  418   3 Pt  78       9.920000    0.630000   19.720000      10.0000    195.0840
  419   3 Pt  78      12.740001    0.670000   19.700000      10.0000    195.0840
  420   3 Pt  78      15.550001    0.670000   19.820000      10.0000    195.0840
  421   3 Pt  78       2.970000    3.050000   19.900000      10.0000    195.0840
  422   3 Pt  78       5.740000    3.210000   19.820000      10.0000    195.0840
  423   3 Pt  78       8.570001    3.220000   19.850000      10.0000    195.0840
  424   3 Pt  78      11.350001    3.110000   19.770000      10.0000    195.0840
  425   3 Pt  78      14.210001    3.130000   19.770000      10.0000    195.0840
  426   3 Pt  78       0.120000    3.060000   19.800000      10.0000    195.0840
  427   3 Pt  78       4.360000    5.610001   19.800000      10.0000    195.0840
  428   3 Pt  78       7.120000    5.660000   19.800000      10.0000    195.0840
  429   3 Pt  78       9.920000    5.640000   19.760000      10.0000    195.0840
  430   3 Pt  78      12.680000    5.560000   19.840000      10.0000    195.0840
  431   3 Pt  78      -1.230000    5.550000   19.840000      10.0000    195.0840
  432   3 Pt  78       1.640000    5.510000   19.870000      10.0000    195.0840
  433   3 Pt  78       5.780000    8.050001   19.910000      10.0000    195.0840
  434   3 Pt  78       8.550000    8.110001   19.810000      10.0000    195.0840
  435   3 Pt  78      11.390000    8.020000   19.850000      10.0000    195.0840
  436   3 Pt  78      -2.720000    7.940001   19.880000      10.0000    195.0840
  437   3 Pt  78       0.150000    7.920001   19.850000      10.0000    195.0840
  438   3 Pt  78       2.990000    8.030001   19.850000      10.0000    195.0840
  439   3 Pt  78       7.160000   10.490000   19.860000      10.0000    195.0840
  440   3 Pt  78      10.010000   10.460000   19.960000      10.0000    195.0840
  441   3 Pt  78      -4.070000   10.470000   19.880000      10.0000    195.0840
  442   3 Pt  78      -1.280000   10.360001   19.840000      10.0000    195.0840
  443   3 Pt  78       1.500000   10.510000   19.660000      10.0000    195.0840
  444   3 Pt  78       4.390000   10.450001   19.870000      10.0000    195.0840
  445   3 Pt  78       8.630000   12.880001   19.860000      10.0000    195.0840
  446   3 Pt  78      -5.440001   12.840000   20.030000      10.0000    195.0840
  447   3 Pt  78      -2.600000   12.830001   19.850000      10.0000    195.0840
  448   3 Pt  78       0.080000   12.790001   19.760000      10.0000    195.0840
  449   3 Pt  78       2.830000   13.000001   19.710000      10.0000    195.0840
  450   3 Pt  78       5.750000   12.900001   19.770000      10.0000    195.0840
  451   3 Pt  78       0.170000    1.530000   17.500000      10.0000    195.0840
  452   3 Pt  78       2.830000    1.580000   17.600000      10.0000    195.0840
  453   3 Pt  78       5.630000    1.420000   17.550000      10.0000    195.0840
  454   3 Pt  78       8.370000    1.530000   17.620000      10.0000    195.0840
  455   3 Pt  78      11.280001    1.680000   17.370000      10.0000    195.0840
  456   3 Pt  78      14.150001    1.530000   17.470000      10.0000    195.0840
  457   3 Pt  78       1.440000    3.990000   17.480000      10.0000    195.0840
  458   3 Pt  78       4.280000    3.910000   17.650000      10.0000    195.0840
  459   3 Pt  78       7.030000    3.900000   17.530000      10.0000    195.0840
  460   3 Pt  78       9.920000    3.950000   17.550000      10.0000    195.0840
  461   3 Pt  78      12.740001    3.950000   17.460000      10.0000    195.0840
  462   3 Pt  78      -1.290000    3.930000   17.430000      10.0000    195.0840
  463   3 Pt  78       2.830000    6.550000   17.650000      10.0000    195.0840
  464   3 Pt  78       5.670000    6.330000   17.440000      10.0000    195.0840
  465   3 Pt  78       8.540000    6.370000   17.410000      10.0000    195.0840
  466   3 Pt  78      11.330000    6.450000   17.500000      10.0000    195.0840
  467   3 Pt  78      -2.800000    6.300001   17.420000      10.0000    195.0840
  468   3 Pt  78       0.050000    6.320000   17.580000      10.0000    195.0840
  469   3 Pt  78       4.360000    8.860001   17.560000      10.0000    195.0840
  470   3 Pt  78       7.080000    8.780001   17.450000      10.0000    195.0840
  471   3 Pt  78       9.860001    8.900001   17.460000      10.0000    195.0840
  472   3 Pt  78      -4.220000    8.860001   17.530000      10.0000    195.0840
  473   3 Pt  78      -1.370000    8.590000   17.490000      10.0000    195.0840
  474   3 Pt  78       1.290000    8.880001   17.520000      10.0000    195.0840
  475   3 Pt  78       5.710001   11.360001   17.480000      10.0000    195.0840
  476   3 Pt  78       8.460000   11.280001   17.540000      10.0000    195.0840
  477   3 Pt  78      -5.510000   11.380000   17.540000      10.0000    195.0840
  478   3 Pt  78      -2.750000   11.310000   17.510000      10.0000    195.0840
  479   3 Pt  78       0.030000   11.320001   17.460000      10.0000    195.0840
  480   3 Pt  78       2.810000   11.350001   17.370000      10.0000    195.0840
  481   3 Pt  78       7.060000   13.720001   17.480000      10.0000    195.0840
  482   3 Pt  78      -6.910000   13.720001   17.560000      10.0000    195.0840
  483   3 Pt  78      -4.130000   13.780001   17.680000      10.0000    195.0840
  484   3 Pt  78      -1.290000   13.750001   17.510000      10.0000    195.0840
  485   3 Pt  78       1.640000   13.830000   17.440000      10.0000    195.0840
  486   3 Pt  78       4.280000   13.760000   17.360000      10.0000    195.0840
  487   3 Pt  78      -8.190001   14.550000   15.250000      10.0000    195.0840
  488   3 Pt  78      -5.570001   14.500000   15.280000      10.0000    195.0840
  489   3 Pt  78      -2.720000   14.470000   15.070000      10.0000    195.0840
  490   3 Pt  78       0.020000   14.590001   15.070000      10.0000    195.0840
  491   3 Pt  78       2.830000   14.500000   15.050000      10.0000    195.0840
  492   3 Pt  78       5.680000   14.380001   15.030000      10.0000    195.0840
  493   3 Pt  78       1.550000    2.370000   15.060000      10.0000    195.0840
  494   3 Pt  78       4.270000    2.290000   15.180000      10.0000    195.0840
  495   3 Pt  78       7.020000    2.350000   15.210000      10.0000    195.0840
  496   3 Pt  78       9.870001    2.340000   15.140000      10.0000    195.0840
  497   3 Pt  78      12.710000    2.240000   15.210000      10.0000    195.0840
  498   3 Pt  78      -1.250000    2.210000   15.150000      10.0000    195.0840
  499   3 Pt  78       2.910000    4.810000   15.300000      10.0000    195.0840
  500   3 Pt  78       5.640000    4.680000   15.000000      10.0000    195.0840
  501   3 Pt  78       8.420001    4.550000   15.260000      10.0000    195.0840
  502   3 Pt  78      11.140001    4.770000   15.260000      10.0000    195.0840
  503   3 Pt  78      -2.810000    4.670000   15.110000      10.0000    195.0840
  504   3 Pt  78      -0.010000    4.800000   15.200000      10.0000    195.0840
  505   3 Pt  78       4.160000    7.170000   15.250000      10.0000    195.0840
[...]
 flops     5 x    32 x     5           4127910400       0.0%    100.0%      0.0%
 flops    13 x    13 x    96           4574194560       0.0%    100.0%      0.0%
 flops    13 x    13 x   100           4764786000       0.0%    100.0%      0.0%
 flops    13 x    32 x     5           5278590720       0.0%    100.0%      0.0%
 flops     5 x    32 x    13           5278590720       0.0%    100.0%      0.0%
 flops    13 x    20 x    96           6230016000       0.0%    100.0%      0.0%
 flops    20 x    13 x    96           6230016000       0.0%    100.0%      0.0%
 flops    13 x    32 x    13           6233823232       0.0%    100.0%      0.0%
 flops    13 x    20 x   100           6489600000       0.0%    100.0%      0.0%
 flops    20 x    13 x   100           6489600000       0.0%    100.0%      0.0%
 flops     5 x    20 x    96           6694848000       0.0%    100.0%      0.0%
 flops    20 x     5 x    96           6713856000       0.0%    100.0%      0.0%
 flops     5 x    20 x   100           6973800000       0.0%    100.0%      0.0%
 flops    20 x     5 x   100           6993600000       0.0%    100.0%      0.0%
 flops    13 x    32 x    20           8583577600       0.0%    100.0%      0.0%
 flops    20 x    32 x    13           8583577600       0.0%    100.0%      0.0%
 flops     5 x    32 x    20           9237107200       0.0%    100.0%      0.0%
 flops    20 x    32 x     5           9237107200       0.0%    100.0%      0.0%
 flops    20 x    20 x    96          53996544000       0.0%    100.0%      0.0%
 flops     5 x     5 x   128          56200704000       0.0%    100.0%      0.0%
 flops    20 x    20 x   100          56246400000       0.0%    100.0%      0.0%
 flops    13 x     5 x   128          71474457600       0.0%    100.0%      0.0%
 flops     5 x    13 x   128          71558323200       0.0%    100.0%      0.0%
 flops    20 x    32 x    20          74052403200       0.0%    100.0%      0.0%
 flops    13 x    13 x   128          85384965120       0.0%    100.0%      0.0%
 flops    13 x    20 x   128         116293632000       0.0%    100.0%      0.0%
 flops    20 x    13 x   128         116293632000       0.0%    100.0%      0.0%
 flops     5 x    20 x   128         124970496000       0.0%    100.0%      0.0%
 flops    20 x     5 x   128         125325312000       0.0%    100.0%      0.0%
 flops    20 x    20 x   128        1007935488000       0.0%    100.0%      0.0%
 flops inhomo. stacks                           0       0.0%      0.0%      0.0%
 flops total                         2.100501E+12       0.0%    100.0%      0.0%
 flops max/rank                     19.308855E+09       0.0%    100.0%      0.0%
 matmuls inhomo. stacks                         0       0.0%      0.0%      0.0%
 matmuls total                           61238562       0.0%    100.0%      0.0%
 number of processed stacks                575392       0.0%    100.0%      0.0%
 average stack size                                     0.0     106.4       0.0
 marketing flops                     4.305182E+12
 -------------------------------------------------------------------------------
 # multiplications                             31
 max memory usage/rank               1.609847E+09
 # max total images/rank                        2
 # max 3D layers                                1
 # MPI messages exchanged                  115072
 MPI messages size (bytes):
  total size                        74.662691E+09
  min size                         278.784000E+03
  max size                           2.315176E+06
  average size                     648.834562E+03
 MPI breakdown and total messages size (bytes):
             size <=      128                   0                        0
       128 < size <=     8192                   0                        0
      8192 < size <=    32768                   0                        0
     32768 < size <=   131072                   0                        0
    131072 < size <=  4194304              115072              74662695168
   4194304 < size <= 16777216                   0                        0
  16777216 < size                               0                        0
 -------------------------------------------------------------------------------

 *** WARNING in dbcsr_mm.F:290 :: Using a non-square number of MPI ranks ***
 *** might lead to poor performance. Used ranks: 128 Suggested: 121 256  ***

 -------------------------------------------------------------------------------
 -                                                                             -
 -                      DBCSR MESSAGE PASSING PERFORMANCE                      -
 -                                                                             -
 -------------------------------------------------------------------------------
 ROUTINE             CALLS      AVE VOLUME [Bytes]
 MP_Bcast               46                     12.
 MP_Allreduce          320                     14.
 MP_Alltoall           861                 589001.
 MP_ISend             1984                 308536.
 MP_IRecv             1984                 302183.
 -------------------------------------------------------------------------------

 -------------------------------------------------------------------------------
 -                                                                             -
 -                                DBM STATISTICS                               -
 -                                                                             -
 -------------------------------------------------------------------------------
    M  x    N  x    K                                          COUNT     PERCENT
 -------------------------------------------------------------------------------

 -------------------------------------------------------------------------------
 -                                                                             -
 -                                GRID STATISTICS                              -
 -                                                                             -
 -------------------------------------------------------------------------------
 LP    KERNEL             BACKEND                              COUNT     PERCENT
 4     collocate general  REF                               11790327      21.74%
 4     integrate general  REF                               11672291      21.52%
 3     collocate general  REF                                8367283      15.43%
 3     integrate general  REF                                8314165      15.33%
 2     collocate general  REF                                6826861      12.59%
 2     integrate general  REF                                6591452      12.15%
 5     integrate general  REF                                 406563       0.75%
 0     collocate general  REF                                 133632       0.25%
 0     integrate general  REF                                  66816       0.12%
 1     integrate general  REF                                  66816       0.12%
 -------------------------------------------------------------------------------

 MEMORY| Estimated peak process memory [MiB]                                1792

 -------------------------------------------------------------------------------
 ----                             MULTIGRID INFO                            ----
 -------------------------------------------------------------------------------
 count for grid        1:        1099962          cutoff [a.u.]          200.00
 count for grid        2:        1094574          cutoff [a.u.]           66.67
 count for grid        3:         720964          cutoff [a.u.]           22.22
 count for grid        4:         560361          cutoff [a.u.]            7.41
 total gridlevel count  :        3475861

 -------------------------------------------------------------------------------
 -                                                                             -
 -                         MESSAGE PASSING PERFORMANCE                         -
 -                                                                             -
 -------------------------------------------------------------------------------

 ROUTINE             CALLS      AVE VOLUME [Bytes]
 MP_Group                4
 MP_Bcast             2187                 309370.
 MP_Allreduce         3182                  34453.
 MP_Sync                64
 MP_Alltoall          1762               16444396.
 MP_SendRecv           508                   6138.
 MP_ISendRecv        14732                  61740.
 MP_Wait             26258
 MP_comm_split          30
 MP_ISend            10868                 256563.
 MP_IRecv            10868                 256563.
 MP_Recv               124                1706496.
 MP_Write_All            3                1797408.
 -------------------------------------------------------------------------------


 -------------------------------------------------------------------------------
 -                                                                             -
 -                           R E F E R E N C E S                               -
 -                                                                             -
 -------------------------------------------------------------------------------
 
 CP2K version 2022.1, the CP2K developers group (2022).
 CP2K is freely available from https://www.cp2k.org/ .

 Kuehne,Thomas D.; Iannuzzi,Marcella; Del Ben,Mauro;
 Rybkin,Vladimir V.; Seewald,Patrick; Stein,Frederick; Laino,Teodoro;
 Khaliullin,Rustam Z.; Schuett,Ole; Schiffmann,Florian; Golze,Dorothea;
 Wilhelm,Jan; Chulkov,Sergey; Bani-Hashemian,Mohammad Hossein;
 Weber,Valery; Borstnik,Urban; Taillefumier,Mathieu;
 Jakobovits,Alice Shoshana; Lazzaro,Alfio; Pabst,Hans; Mueller,Tiziano;
 Schade,Robert; Guidon,Manuel; Andermatt,Samuel; Holmberg,Nico;
 Schenter,Gregory K.; Hehn,Anna; Bussy,Augustin; Belleflamme,Fabian;
 Tabacchi,Gloria; Gloess,Andreas; Lass,Michael; Bethune,Iain;
 Mundy,Christopher J.; Plessl,Christian; Watkins,Matt;
 VandeVondele,Joost; Krack,Matthias; Hutter,Juerg. 
 The Journal of Chemical Physics, 152 (19), (2020). 
 CP2K: An electronic structure and molecular dynamics software package -
 Quickstep: Efficient and accurate electronic structure calculations.
 https://doi.org/10.1063/5.0007045

 Goerigk, Lars; Hansen, Andreas; Bauer, Christoph; Ehrlich, Stephan;
 Najibi, Asim; Grimme, Stefan. , 19 (48), (2017). 
 A look at the density functional theory zoo with the advanced GMTKN55 database
 for general main group thermochemistry, kinetics and noncovalent interactions.
 https://doi.org/10.1039/C7CP04913G

 Bani-Hashemian, MH; Bruck, S; Luisier, M; VandeVondele, J. 
 JOURNAL OF CHEMICAL PHYSICS, 144 (4), 044113 (2016). 
 A generalized Poisson solver for first-principles device simulations.
 https://doi.org/10.1063/1.4940796

 Schuett, Ole; Messmer, Peter; Hutter, Juerg; VandeVondele, Joost. 
 Electronic Structure Calculations on Graphics Processing Units, John
 Wiley & Sons, Ltd, 173-190 (2016). 
 GPU-Accelerated Sparse Matrix-Matrix Multiplication for
 Linear Scaling Density Functional Theory.
 https://doi.org/10.1002/9781118670712.ch8

 Heinecke, A; Henry, G; Hutchinson, M; Pabst, H. 
 Proceedings of Intl. Supercomputing Conference, 981-991 (2016). 
 LIBXSMM: Accelerating Small Matrix Multiplications
 by Runtime Code Generation.
 https://doi.org/10.1109/SC.2016.83

 Borstnik, U; VandeVondele, J; Weber, V; Hutter, J. 
 PARALLEL COMPUTING, 40 (5-6), 47-58 (2014). 
 Sparse matrix multiplication: The distributed block-compressed sparse
 row library.
 https://doi.org/10.1016/j.parco.2014.03.012

 Hutter, J; Iannuzzi, M; Schiffmann, F; VandeVondele, J. 
 WIREs Comput Mol Sci., 4 (1), 15-25 (2014). 
 CP2K: atomistic simulations of condensed matter systems.
 https://doi.org/10.1002/wcms.1159

 Marek, A; Blum, V; Johanni, R; Havu, V; Lang, B; Auckenthaler, T;
 Heinecke, A; Bungartz, H; Lederer, H. 
 Journal of Physics: Condensed Matter, 26 (21), (2014). 
 The ELPA library: scalable parallel eigenvalue solutions for
 electronic structure
 theory and computational science.
 https://doi.org/10.1088/0953-8984/26/21/213201

 Grimme, S; Ehrlich, S; Goerigk, L. 
 JOURNAL OF COMPUTATIONAL CHEMISTRY, 32, 1456 (2011). 
 Effect of the damping function in dispersion corrected density functional theory.
 https://doi.org/10.1002/jcc.21759

 Grimme, S; Antony, J; Ehrlich, S; Krieg, H. 
 JOURNAL OF CHEMICAL PHYSICS, 132 (15), 154104 (2010). 
 A consistent and accurate ab initio parametrization of density
 functional dispersion correction (DFT-D) for the 94 elements H-Pu.
 https://doi.org/10.1063/1.3382344

 VandeVondele, J; Hutter, J. 
 JOURNAL OF CHEMICAL PHYSICS, 127 (11), 114105 (2007). 
 Gaussian basis sets for accurate calculations on molecular systems in
 gas and condensed phases.
 https://doi.org/10.1063/1.2770708

 Krack, M. 
 THEORETICAL CHEMISTRY ACCOUNTS, 114 (1-3), 145-152 (2005). 
 Pseudopotentials for H to Kr optimized for gradient-corrected
 exchange-correlation functionals.
 https://doi.org/10.1007/s00214-005-0655-y

 VandeVondele, J; Krack, M; Mohamed, F; Parrinello, M; Chassaing, T;
 Hutter, J. COMPUTER PHYSICS COMMUNICATIONS, 167 (2), 103-128 (2005). 
 QUICKSTEP: Fast and accurate density functional calculations using a
 mixed Gaussian and plane waves approach.
 https://doi.org/10.1016/j.cpc.2004.12.014

 Frigo, M; Johnson, SG. 
 PROCEEDINGS OF THE IEEE, 93 (2), 216-231 (2005). 
 The design and implementation of FFTW3.
 https://doi.org/10.1109/JPROC.2004.840301

 Hartwigsen, C; Goedecker, S; Hutter, J. 
 PHYSICAL REVIEW B, 58 (7), 3641-3662 (1998). 
 Relativistic separable dual-space Gaussian pseudopotentials from H to Rn.
 https://doi.org/10.1103/PhysRevB.58.3641

 Lippert, G; Hutter, J; Parrinello, M. 
 MOLECULAR PHYSICS, 92 (3), 477-487 (1997). 
 A hybrid Gaussian and plane wave density functional scheme.
 https://doi.org/10.1080/002689797170220

 Perdew, JP; Burke, K; Ernzerhof, M. 
 PHYSICAL REVIEW LETTERS, 77 (18), 3865-3868 (1996). 
 Generalized gradient approximation made simple.
 https://doi.org/10.1103/PhysRevLett.77.3865

 Goedecker, S; Teter, M; Hutter, J. 
 PHYSICAL REVIEW B, 54 (3), 1703-1710 (1996). 
 Separable dual-space Gaussian pseudopotentials.
 https://doi.org/10.1103/PhysRevB.54.1703


 -------------------------------------------------------------------------------
 -                                                                             -
 -                                T I M I N G                                  -
 -                                                                             -
 -------------------------------------------------------------------------------
 SUBROUTINE                       CALLS  ASD         SELF TIME        TOTAL TIME
                                MAXIMUM       AVERAGE  MAXIMUM  AVERAGE  MAXIMUM
 CP2K                                 1  1.0    1.020    1.033  209.138  209.140
 qs_forces                            1  2.0    0.002    0.002  207.672  207.673
 qs_energies                          1  3.0    0.000    0.001  201.545  201.549
 scf_env_do_scf                       1  4.0    0.000    0.000  192.066  192.205
 scf_env_do_scf_inner_loop           28  5.0    0.002    0.013  192.063  192.201
 rebuild_ks_matrix                   29  6.9    0.000    0.000  104.703  104.721
 qs_ks_build_kohn_sham_matrix        29  7.9    0.005    0.005  104.703  104.721
 qs_ks_update_qs_env                 28  6.0    0.000    0.000  100.679  100.697
 pw_transfer                       1512 12.2    0.111    0.152   66.226   67.528
 fft_wrap_pw1pw2                   1512 13.2    0.015    0.018   66.115   67.402
 fft_wrap_pw1pw2_200               1338 14.4    4.445    5.227   65.214   66.464
 pw_poisson_solve                    29  8.9    0.003    0.006   56.791   56.818
 qs_scf_new_mos                      28  6.0    0.001    0.003   55.843   55.920
 fft3d_ps                          1512 15.2   18.984   21.194   53.269   55.042
 implicit_poisson_solver_mixed_      29  9.9    1.198    1.461   53.624   53.671
 eigensolver                         28  7.0    0.002    0.003   52.710   52.891
 cp_fm_diag_elpa                     30  8.1    0.000    0.001   37.653   37.751
 derive_fft                         174 12.1    0.010    0.012   37.402   37.509
 cp_fm_redistribute_end              30  9.1    5.015   37.289    5.075   37.323
 cp_fm_diag_elpa_base                30  9.0   31.767   36.460   32.074   36.799
 mp_alltoall_z22v                  1512 17.2   28.744   35.251   28.744   35.251
 apply_P_operator                   145 11.1    0.776    0.858   31.983   32.070
 qs_rho_update_rho_low               29  6.0    0.000    0.000   31.984   31.992
 calculate_rho_elec                  29  7.0    0.056    0.070   31.984   31.992
 sum_up_and_integrate                29  8.9    0.157    0.191   31.873   31.896
 integrate_v_rspace                  29  9.9    0.001    0.002   31.716   31.779
 grid_collocate_task_list            29  8.0   21.367   25.100   21.367   25.100
 grid_integrate_task_list            29 10.9   19.914   23.103   19.914   23.103
 x_to_yz                            871 16.4    3.679    4.656   21.935   22.629
 cp_fm_triangular_multiply           84  8.0   16.621   16.838   16.621   16.838
 rs_pw_transfer                     236 10.4    0.003    0.003   13.724   16.442
 yz_to_x                            467 16.4    1.277    1.487   11.657   15.982
 qs_vxc_create                       29  8.9    0.001    0.001   14.301   14.471
 xc_vxc_pw_create                    29  9.9    0.248    0.312   14.300   14.470
 density_rs2pw                       29  8.0    0.002    0.002    9.935   12.760
 xc_pw_derive                       174 11.9    0.003    0.003   10.052   11.155
 apply_poisson_operator_fft          29 10.9    0.000    0.000    9.310    9.478
 apply_inv_laplace_operator_fft      89 11.6    0.222    0.256    8.786    9.094
 rs_pw_transfer_RS2PW_200            31  9.9    2.036    2.253    5.676    8.401
 mp_waitany                       10868 12.3    5.581    8.373    5.581    8.373
 potential_pw2rs                     29 10.9    0.009    0.009    8.287    8.351
 xc_pw_divergence                    29 10.9    0.001    0.002    6.793    7.611
 xc_rho_set_and_dset_create          29 10.9    0.144    0.166    6.997    7.425
 mp_alltoall_d11v                   428 10.3    4.456    7.183    4.456    7.183
 ps_implicit_compute_error_fft       58 10.9    0.365    0.446    6.695    7.137
 ps_implicit_compute_veps            29 10.9    0.169    0.208    6.366    6.474
 pw_scatter_p                       958 15.3    5.343    6.204    5.343    6.204
 rs_gather_matrices                  29 10.9    0.036    0.053    3.502    6.173
 scf_post_calculation_gpw             1  4.0    0.000    0.001    5.899    5.905
 write_available_results              1  5.0    0.000    0.000    5.898    5.904
 rs_pw_transfer_PW2RS_200            31 12.6    2.340    2.467    4.916    5.056
 pw_derive                          696 13.0    4.407    4.699    4.407    4.699
 gspace_mixing                       27  6.0    0.052    0.063    4.513    4.524
 -------------------------------------------------------------------------------

 The number of warnings for this run is : 1
 
 -------------------------------------------------------------------------------
  **** **** ******  **  PROGRAM ENDED AT                 2023-12-03 02:20:33.954
 ***** ** ***  *** **   PROGRAM RAN ON                                     cu001
 **    ****   ******    PROGRAM RAN BY                                     jxzhu
 ***** **    ** ** **   PROGRAM PROCESS ID                                 40003
  **** **  *******  **  PROGRAM STOPPED IN /public/home/jxzhu/tmp_calc/7a9304d09
                                           f9a45badb43c792a824a0621c573445/calc/
                                           002400.000/search_hi.000000
