 DBCSR| CPU Multiplication driver                                           XSMM
 DBCSR| Multrec recursion limit                                              512
 DBCSR| Multiplication stack size                                           1000
 DBCSR| Maximum elements for images                                    UNLIMITED
 DBCSR| Multiplicative factor virtual images                                   1
 DBCSR| Use multiplication densification                                       T
 DBCSR| Multiplication size stacks                                             3
 DBCSR| Use memory pool for CPU allocation                                     F
 DBCSR| Number of 3D layers                                               SINGLE
 DBCSR| Use MPI memory allocation                                              F
 DBCSR| Use RMA algorithm                                                      F
 DBCSR| Use Communication thread                                               T
 DBCSR| Communication thread load                                             87
 DBCSR| MPI: My node id                                                        0
 DBCSR| MPI: Number of nodes                                                 128
 DBCSR| OMP: Current number of threads                                         1
 DBCSR| OMP: Max number of threads                                             1
 DBCSR| Split modifier for TAS multiplication algorithm                  1.0E+00


  **** **** ******  **  PROGRAM STARTED AT               2024-07-18 00:51:53.756
 ***** ** ***  *** **   PROGRAM STARTED ON                                 cu042
 **    ****   ******    PROGRAM STARTED BY                                 jxzhu
 ***** **    ** ** **   PROGRAM PROCESS ID                                 12311
  **** **  *******  **  PROGRAM STARTED IN /public/home/jxzhu/tmp_calc/01bb3a4ec
                                           e87bb1352835195bbd778fbd67b8318/calc/
                                           002000.000/search_lo.000000

 CP2K| version string:                                       CP2K version 2022.1
 CP2K| source code revision number:                                  git:2caeb6f
 CP2K| cp2kflags: omp libint fftw3 libxc elpa parallel mpi3 scalapack cosma xsmm
 CP2K|             plumed2 spglib mkl sirius libvori libbqb
 CP2K| is freely available from                            https://www.cp2k.org/
 CP2K| Program compiled at                           Mon Jul 3 17:37:06 CST 2023
 CP2K| Program compiled on                                                 mu003
 CP2K| Program compiled for                                                local
 CP2K| Data directory path                             /public/home/jxzhu/basis/
 CP2K| Input file name                                                 input.inp
 
 GLOBAL| Force Environment number                                              1
 GLOBAL| Basis set file name                                        BASIS_MOLOPT
 GLOBAL| Potential file name                                      GTH_POTENTIALS
 GLOBAL| MM Potential file name                                     MM_POTENTIAL
 GLOBAL| Coordinate file name                                          coord.xyz
 GLOBAL| Method name                                                        CP2K
 GLOBAL| Project name                                                       cp2k
 GLOBAL| Run type                                                   ENERGY_FORCE
 GLOBAL| FFT library                                                       FFTW3
 GLOBAL| Diagonalization library                                            ELPA
 GLOBAL| Minimum number of eigenvectors for ELPA usage                        16
 GLOBAL| Orthonormality check for eigenvectors                          DISABLED
 GLOBAL| Matrix multiplication library                                     COSMA
 GLOBAL| All-to-all communication in single precision                          F
 GLOBAL| FFTs using library dependent lengths                                  T
 GLOBAL| Grid backend                                                       AUTO
 GLOBAL| Global print level                                               MEDIUM
 GLOBAL| MPI I/O enabled                                                       T
 GLOBAL| Total number of message passing processes                           128
 GLOBAL| Number of threads for this process                                    1
 GLOBAL| This output is from process                                           0
 GLOBAL| Stack size for threads created by OpenMP (OMP_STACKSIZE)        default
 GLOBAL| CPU model name                 Intel(R) Xeon(R) Gold 6338 CPU @ 2.00GHz
 GLOBAL| CPUID                                                              1003

 MEMORY| system memory details [Kb]
 MEMORY|                        rank 0           min           max       average
 MEMORY| MemTotal            263619172     263619172     263619172     263619172
 MEMORY| MemFree             189433172     187046936     189433692     188240228
 MEMORY| Buffers                   572           556           572           564
 MEMORY| Cached                1761916       1221036       1761916       1491476
 MEMORY| Slab                  2109652       1933724       2109652       2021688
 MEMORY| SReclaimable           284672        270964        284672        277818
 MEMORY| MemLikelyFree       191480332     188539492     191480852     190010086


 *** Fundamental physical constants (SI units) ***

 *** Literature: B. J. Mohr and B. N. Taylor,
 ***             CODATA recommended values of the fundamental physical
 ***             constants: 2006, Web Version 5.1
 ***             http://physics.nist.gov/constants

 Speed of light in vacuum [m/s]                             2.99792458000000E+08
 Magnetic constant or permeability of vacuum [N/A**2]       1.25663706143592E-06
 Electric constant or permittivity of vacuum [F/m]          8.85418781762039E-12
 Planck constant (h) [J*s]                                  6.62606896000000E-34
 Planck constant (h-bar) [J*s]                              1.05457162825177E-34
 Elementary charge [C]                                      1.60217648700000E-19
 Electron mass [kg]                                         9.10938215000000E-31
 Electron g factor [ ]                                     -2.00231930436220E+00
 Proton mass [kg]                                           1.67262163700000E-27
 Fine-structure constant                                    7.29735253760000E-03
 Rydberg constant [1/m]                                     1.09737315685270E+07
 Avogadro constant [1/mol]                                  6.02214179000000E+23
 Boltzmann constant [J/K]                                   1.38065040000000E-23
 Atomic mass unit [kg]                                      1.66053878200000E-27
 Bohr radius [m]                                            5.29177208590000E-11

 *** Conversion factors ***

 [u] -> [a.u.]                                              1.82288848426455E+03
 [Angstrom] -> [Bohr] = [a.u.]                              1.88972613288564E+00
 [a.u.] = [Bohr] -> [Angstrom]                              5.29177208590000E-01
 [a.u.] -> [s]                                              2.41888432650478E-17
 [a.u.] -> [fs]                                             2.41888432650478E-02
 [a.u.] -> [J]                                              4.35974393937059E-18
 [a.u.] -> [N]                                              8.23872205491840E-08
 [a.u.] -> [K]                                              3.15774647902944E+05
 [a.u.] -> [kJ/mol]                                         2.62549961709828E+03
 [a.u.] -> [kcal/mol]                                       6.27509468713739E+02
 [a.u.] -> [Pa]                                             2.94210107994716E+13
 [a.u.] -> [bar]                                            2.94210107994716E+08
 [a.u.] -> [atm]                                            2.90362800883016E+08
 [a.u.] -> [eV]                                             2.72113838565563E+01
 [a.u.] -> [Hz]                                             6.57968392072181E+15
 [a.u.] -> [1/cm] (wave numbers)                            2.19474631370540E+05
 [a.u./Bohr**2] -> [1/cm]                                   5.14048714338585E+03
 

 CELL_TOP| Volume [angstrom^3]:                                     17614.982639
 CELL_TOP| Vector a [angstrom    16.869     0.000     0.000   |a| =    16.869000
 CELL_TOP| Vector b [angstrom    -8.434    14.609     0.000   |b| =    16.869015
 CELL_TOP| Vector c [angstrom     0.000     0.000    71.478   |c| =    71.478000
 CELL_TOP| Angle (b,c), alpha [degree]:                                90.000000
 CELL_TOP| Angle (a,c), beta  [degree]:                                90.000000
 CELL_TOP| Angle (a,b), gamma [degree]:                               119.999970
 CELL_TOP| Numerically orthorhombic:                                          NO
 
 GENERATE|  Preliminary Number of Bonds generated:                             0
 GENERATE|  Achieved consistency in connectivity generation.

 CELL| Volume [angstrom^3]:                                         17614.982639
 CELL| Vector a [angstrom]:      16.869     0.000     0.000   |a| =    16.869000
 CELL| Vector b [angstrom]:      -8.434    14.609     0.000   |b| =    16.869015
 CELL| Vector c [angstrom]:       0.000     0.000    71.478   |c| =    71.478000
 CELL| Angle (b,c), alpha [degree]:                                    90.000000
 CELL| Angle (a,c), beta  [degree]:                                    90.000000
 CELL| Angle (a,b), gamma [degree]:                                   119.999970
 CELL| Numerically orthorhombic:                                              NO

 CELL_REF| Volume [angstrom^3]:                                     17614.982639
 CELL_REF| Vector a [angstrom    16.869     0.000     0.000   |a| =    16.869000
 CELL_REF| Vector b [angstrom    -8.434    14.609     0.000   |b| =    16.869015
 CELL_REF| Vector c [angstrom     0.000     0.000    71.478   |c| =    71.478000
 CELL_REF| Angle (b,c), alpha [degree]:                                90.000000
 CELL_REF| Angle (a,c), beta  [degree]:                                90.000000
 CELL_REF| Angle (a,b), gamma [degree]:                               119.999970
 CELL_REF| Numerically orthorhombic:                                          NO

 *******************************************************************************
 *******************************************************************************
 **                                                                           **
 **     #####                         ##              ##                      **
 **    ##   ##            ##          ##              ##                      **
 **   ##     ##                       ##            ######                    **
 **   ##     ##  ##   ##  ##   #####  ##  ##   ####   ##    #####    #####    **
 **   ##     ##  ##   ##  ##  ##      ## ##   ##      ##   ##   ##  ##   ##   **
 **   ##  ## ##  ##   ##  ##  ##      ####     ###    ##   ######   ######    **
 **    ##  ###   ##   ##  ##  ##      ## ##      ##   ##   ##       ##        **
 **     #######   #####   ##   #####  ##  ##  ####    ##    #####   ##        **
 **           ##                                                    ##        **
 **                                                                           **
 **                                                ... make the atoms dance   **
 **                                                                           **
 **            Copyright (C) by CP2K developers group (2000-2022)             **
 **                      J. Chem. Phys. 152, 194103 (2020)                    **
 **                                                                           **
 *******************************************************************************

 DFT| Spin restricted Kohn-Sham (RKS) calculation                            RKS
 DFT| Multiplicity                                                             1
 DFT| Number of spin states                                                    1
 DFT| Charge                                                                   0
 DFT| Self-interaction correction (SIC)                                       NO
 DFT| Cutoffs: density                                              1.000000E-10
 DFT|          gradient                                             1.000000E-10
 DFT|          tau                                                  1.000000E-10
 DFT|          cutoff_smoothing_range                               0.000000E+00
 DFT| XC density smoothing                                                  NONE
 DFT| XC derivatives                                                          PW

 FUNCTIONAL| PBE:
 FUNCTIONAL| J.P.Perdew, K.Burke, M.Ernzerhof, Phys. Rev. Letter, vol. 77, n 18,
 FUNCTIONAL|  pp. 3865-3868, (1996){spin unpolarized}                           

 vdW POTENTIAL|                                                   Pair Potential
 vdW POTENTIAL|          DFT-D3 (Version 3.1)
 vdW POTENTIAL|          Potential Form: S. Grimme et al, JCP 132: 154104 (2010)
 vdW POTENTIAL|          Zero Damping
 vdW POTENTIAL|          Cutoff Radius [Bohr]:                             20.00
 vdW POTENTIAL|          s6 Scaling Factor:                               1.0000
 vdW POTENTIAL|          sr6 Scaling Factor:                              1.2170
 vdW POTENTIAL|          s8 Scaling Factor:                               0.7220
 vdW POTENTIAL|          Cutoff for CN calculation:                   0.1000E-05

 QS| Method:                                                                 GPW
 QS| Density plane wave grid type                        NON-SPHERICAL FULLSPACE
 QS| Number of grid levels:                                                    4
 QS| Density cutoff [a.u.]:                                                200.0
 QS| Multi grid cutoff [a.u.]: 1) grid level                               200.0
 QS|                           2) grid level                                66.7
 QS|                           3) grid level                                22.2
 QS|                           4) grid level                                 7.4
 QS| Grid level progression factor:                                          3.0
 QS| Relative density cutoff [a.u.]:                                        20.0
 QS| Interaction thresholds: eps_pgf_orb:                                3.2E-07
 QS|                         eps_filter_matrix:                          0.0E+00
 QS|                         eps_core_charge:                            1.0E-15
 QS|                         eps_rho_gspace:                             1.0E-13
 QS|                         eps_rho_rspace:                             1.0E-13
 QS|                         eps_gvg_rspace:                             3.2E-07
 QS|                         eps_ppl:                                    1.0E-02
 QS|                         eps_ppnl:                                   3.2E-09


 ATOMIC KIND INFORMATION

  1. Atomic kind: O                                     Number of atoms:      77

     Orbital Basis Set                                        DZVP-MOLOPT-SR-GTH

       Number of orbital shell sets:                                           1
       Number of orbital shells:                                               5
       Number of primitive Cartesian functions:                                5
       Number of Cartesian basis functions:                                   14
       Number of spherical basis functions:                                   13
       Norm type:                                                              2

       Normalised Cartesian orbitals:

                        Set   Shell   Orbital            Exponent    Coefficient

                          1       1    2s               10.389228       0.396646
                                                         3.849621       0.208811
                                                         1.388401      -0.301641
                                                         0.496955      -0.274061
                                                         0.162492      -0.033677

                          1       2    3s               10.389228       0.303673
                                                         3.849621       0.240943
                                                         1.388401      -0.313066
                                                         0.496955      -0.043055
                                                         0.162492       0.213991

                          1       3    3px              10.389228      -1.530415
                                                         3.849621      -1.371928
                                                         1.388401      -0.761951
                                                         0.496955      -0.253695
                                                         0.162492      -0.035541
                          1       3    3py              10.389228      -1.530415
                                                         3.849621      -1.371928
                                                         1.388401      -0.761951
                                                         0.496955      -0.253695
                                                         0.162492      -0.035541
                          1       3    3pz              10.389228      -1.530415
                                                         3.849621      -1.371928
                                                         1.388401      -0.761951
                                                         0.496955      -0.253695
                                                         0.162492      -0.035541

                          1       4    4px              10.389228      -0.565392
                                                         3.849621      -0.038231
                                                         1.388401      -0.382373
                                                         0.496955       0.179070
                                                         0.162492       0.122714
                          1       4    4py              10.389228      -0.565392
                                                         3.849621      -0.038231
                                                         1.388401      -0.382373
                                                         0.496955       0.179070
                                                         0.162492       0.122714
                          1       4    4pz              10.389228      -0.565392
                                                         3.849621      -0.038231
                                                         1.388401      -0.382373
                                                         0.496955       0.179070
                                                         0.162492       0.122714

                          1       5    4dx2             10.389228       1.867377
                                                         3.849621       0.670994
                                                         1.388401       1.353441
                                                         0.496955       0.273538
                                                         0.162492       0.006620
                          1       5    4dxy             10.389228       3.234392
                                                         3.849621       1.162195
                                                         1.388401       2.344229
                                                         0.496955       0.473781
                                                         0.162492       0.011466
                          1       5    4dxz             10.389228       3.234392
                                                         3.849621       1.162195
                                                         1.388401       2.344229
                                                         0.496955       0.473781
                                                         0.162492       0.011466
                          1       5    4dy2             10.389228       1.867377
                                                         3.849621       0.670994
                                                         1.388401       1.353441
                                                         0.496955       0.273538
                                                         0.162492       0.006620
                          1       5    4dyz             10.389228       3.234392
                                                         3.849621       1.162195
                                                         1.388401       2.344229
                                                         0.496955       0.473781
                                                         0.162492       0.011466
                          1       5    4dz2             10.389228       1.867377
                                                         3.849621       0.670994
                                                         1.388401       1.353441
                                                         0.496955       0.273538
                                                         0.162492       0.006620

       Atomic covalent radius [Angstrom]:                                  0.730

       Atomic van der Waals radius [Angstrom]:                             1.520

     GTH Potential information for                                    GTH-PBE-q6

       Description:                       Goedecker-Teter-Hutter pseudopotential
                                           Goedecker et al., PRB 54, 1703 (1996)
                                          Hartwigsen et al., PRB 58, 3641 (1998)
                                                      Krack, TCA 114, 145 (2005)

       Gaussian exponent of the core charge distribution:               8.360253
       Electronic configuration (s p d ...):                               2   4

       Parameters of the local part of the GTH pseudopotential:

                          rloc        C1          C2          C3          C4
                        0.244554  -16.667215    2.487311

       Parameters of the non-local part of the GTH pseudopotential:

                   l      r(l)      h(i,j,l)

                   0    0.220956   18.337458
                   1    0.211332

  2. Atomic kind: H                                     Number of atoms:     154

     Orbital Basis Set                                        DZVP-MOLOPT-SR-GTH

       Number of orbital shell sets:                                           1
       Number of orbital shells:                                               3
       Number of primitive Cartesian functions:                                5
       Number of Cartesian basis functions:                                    5
       Number of spherical basis functions:                                    5
       Norm type:                                                              2

       Normalised Cartesian orbitals:

                        Set   Shell   Orbital            Exponent    Coefficient

                          1       1    2s               10.068468      -0.133023
                                                         2.680223      -0.177618
                                                         0.791502      -0.258419
                                                         0.239116      -0.107525
                                                         0.082193      -0.014019

                          1       2    3s               10.068468       0.344673
                                                         2.680223       1.819821
                                                         0.791502      -0.999069
                                                         0.239116       0.017430
                                                         0.082193       0.082660

                          1       3    3px              10.068468       0.155326
                                                         2.680223       0.367157
                                                         0.791502       0.311480
                                                         0.239116       0.080105
                                                         0.082193       0.033440
                          1       3    3py              10.068468       0.155326
                                                         2.680223       0.367157
                                                         0.791502       0.311480
                                                         0.239116       0.080105
                                                         0.082193       0.033440
                          1       3    3pz              10.068468       0.155326
                                                         2.680223       0.367157
                                                         0.791502       0.311480
                                                         0.239116       0.080105
                                                         0.082193       0.033440

       Atomic covalent radius [Angstrom]:                                  0.320

       Atomic van der Waals radius [Angstrom]:                             1.090

     GTH Potential information for                                    GTH-PBE-q1

       Description:                       Goedecker-Teter-Hutter pseudopotential
                                           Goedecker et al., PRB 54, 1703 (1996)
                                          Hartwigsen et al., PRB 58, 3641 (1998)
                                                      Krack, TCA 114, 145 (2005)

       Gaussian exponent of the core charge distribution:              12.500000
       Electronic configuration (s p d ...):                                   1

       Parameters of the local part of the GTH pseudopotential:

                          rloc        C1          C2          C3          C4
                        0.200000   -4.178900    0.724463

  3. Atomic kind: Pt                                    Number of atoms:     216

     Orbital Basis Set                      DZVP-A5-Q10-323-MOL-T1-DERIVED_SET-1

       Number of orbital shell sets:                                           1
       Number of orbital shells:                                               6
       Number of primitive Cartesian functions:                                5
       Number of Cartesian basis functions:                                   23
       Number of spherical basis functions:                                   20
       Norm type:                                                              2

       Normalised Cartesian orbitals:

                        Set   Shell   Orbital            Exponent    Coefficient

                          1       1    2s                2.521825       0.177473
                                                         1.453920      -0.063399
                                                         0.614053      -0.407089
                                                         0.232656       0.262254
                                                         0.074788       0.047371

                          1       2    3s                2.521825      -0.049056
                                                         1.453920       0.044904
                                                         0.614053      -0.009756
                                                         0.232656      -0.144709
                                                         0.074788       0.144085

                          1       3    3px               2.521825      -0.317572
                                                         1.453920       0.534826
                                                         0.614053      -0.489458
                                                         0.232656       0.245631
                                                         0.074788       0.018221
                          1       3    3py               2.521825      -0.317572
                                                         1.453920       0.534826
                                                         0.614053      -0.489458
                                                         0.232656       0.245631
                                                         0.074788       0.018221
                          1       3    3pz               2.521825      -0.317572
                                                         1.453920       0.534826
                                                         0.614053      -0.489458
                                                         0.232656       0.245631
                                                         0.074788       0.018221

                          1       4    4dx2              2.521825       3.008522
                                                         1.453920      -1.224251
                                                         0.614053       0.225691
                                                         0.232656       0.125144
                                                         0.074788      -0.015348
                          1       4    4dxy              2.521825       5.210912
                                                         1.453920      -2.120465
                                                         0.614053       0.390909
                                                         0.232656       0.216756
                                                         0.074788      -0.026584
                          1       4    4dxz              2.521825       5.210912
                                                         1.453920      -2.120465
                                                         0.614053       0.390909
                                                         0.232656       0.216756
                                                         0.074788      -0.026584
                          1       4    4dy2              2.521825       3.008522
                                                         1.453920      -1.224251
                                                         0.614053       0.225691
                                                         0.232656       0.125144
                                                         0.074788      -0.015348
                          1       4    4dyz              2.521825       5.210912
                                                         1.453920      -2.120465
                                                         0.614053       0.390909
                                                         0.232656       0.216756
                                                         0.074788      -0.026584
                          1       4    4dz2              2.521825       3.008522
                                                         1.453920      -1.224251
                                                         0.614053       0.225691
                                                         0.232656       0.125144
                                                         0.074788      -0.015348

                          1       5    5dx2              2.521825       0.698026
                                                         1.453920      -1.511486
                                                         0.614053      -0.335394
                                                         0.232656      -0.025564
                                                         0.074788      -0.002699
                          1       5    5dxy              2.521825       1.209017
                                                         1.453920      -2.617970
                                                         0.614053      -0.580920
                                                         0.232656      -0.044277
                                                         0.074788      -0.004674
                          1       5    5dxz              2.521825       1.209017
                                                         1.453920      -2.617970
                                                         0.614053      -0.580920
                                                         0.232656      -0.044277
                                                         0.074788      -0.004674
                          1       5    5dy2              2.521825       0.698026
                                                         1.453920      -1.511486
                                                         0.614053      -0.335394
                                                         0.232656      -0.025564
                                                         0.074788      -0.002699
                          1       5    5dyz              2.521825       1.209017
                                                         1.453920      -2.617970
                                                         0.614053      -0.580920
                                                         0.232656      -0.044277
                                                         0.074788      -0.004674
                          1       5    5dz2              2.521825       0.698026
                                                         1.453920      -1.511486
                                                         0.614053      -0.335394
                                                         0.232656      -0.025564
                                                         0.074788      -0.002699

                          1       6    6dx2              2.521825       0.831079
                                                         1.453920      -0.709226
                                                         0.614053      -0.137351
                                                         0.232656       0.068642
                                                         0.074788       0.011745
                          1       6    6dxy              2.521825       1.439472
                                                         1.453920      -1.228415
                                                         0.614053      -0.237899
                                                         0.232656       0.118891
                                                         0.074788       0.020343
                          1       6    6dxz              2.521825       1.439472
                                                         1.453920      -1.228415
                                                         0.614053      -0.237899
                                                         0.232656       0.118891
                                                         0.074788       0.020343
                          1       6    6dy2              2.521825       0.831079
                                                         1.453920      -0.709226
                                                         0.614053      -0.137351
                                                         0.232656       0.068642
                                                         0.074788       0.011745
                          1       6    6dyz              2.521825       1.439472
                                                         1.453920      -1.228415
                                                         0.614053      -0.237899
                                                         0.232656       0.118891
                                                         0.074788       0.020343
                          1       6    6dz2              2.521825       0.831079
                                                         1.453920      -0.709226
                                                         0.614053      -0.137351
                                                         0.232656       0.068642
                                                         0.074788       0.011745

       Atomic covalent radius [Angstrom]:                                  1.300

       Atomic van der Waals radius [Angstrom]:                             1.750

     GTH Potential information for                                   GTH-PBE-q10

       Description:                       Goedecker-Teter-Hutter pseudopotential
                                           Goedecker et al., PRB 54, 1703 (1996)
                                          Hartwigsen et al., PRB 58, 3641 (1998)
                                                      Krack, TCA 114, 145 (2005)

       Gaussian exponent of the core charge distribution:               1.317676
       Electronic configuration (s p d ...):                           1   0   9

       Parameters of the local part of the GTH pseudopotential:

                          rloc        C1          C2          C3          C4
                        0.616000   11.313635

       Parameters of the non-local part of the GTH pseudopotential:

                   l      r(l)      h(i,j,l)

                   0    0.550904    4.733491   -1.784594
                                   -1.784594    2.303901
                   1    0.674138    2.534798   -1.778066
                                   -1.778066    2.103836
                   2    0.457392   -7.264011    2.558665
                                    2.558665   -2.901253


 MOLECULE KIND INFORMATION


 All atoms are their own molecule, skipping detailed information


 TOTAL NUMBERS AND MAXIMUM NUMBERS

  Total number of            - Atomic kinds:                                   3
                             - Atoms:                                        447
                             - Shell sets:                                   447
                             - Shells:                                      2143
                             - Primitive Cartesian functions:               2235
                             - Cartesian basis functions:                   6816
                             - Spherical basis functions:                   6091

  Maximum angular momentum of- Orbital basis functions:                        2
                             - Local part of the GTH pseudopotential:          2
                             - Non-local part of the GTH pseudopotential:      4


 MODULE QUICKSTEP:  ATOMIC COORDINATES IN angstrom

 Atom  Kind  Element       X           Y           Z          Z(eff)       Mass
    1   1 O    8       0.260000   -9.690001   29.388000       6.0000     15.9994
    2   2 H    1       0.070000   -8.750001   29.278000       1.0000      1.0079
    3   2 H    1       1.270000   -9.710001   29.708000       1.0000      1.0079
    4   1 O    8      -6.150000  -27.860001   33.798001       6.0000     15.9994
    5   2 H    1      -5.820000  -28.060001   32.918001       1.0000      1.0079
    6   2 H    1      -6.030001  -28.740002   34.238000       1.0000      1.0079
    7   1 O    8      13.850001    5.780000   29.988000       6.0000     15.9994
    8   2 H    1      13.720001    5.030000   29.338001       1.0000      1.0079
    9   2 H    1      14.180001    5.390000   30.838000       1.0000      1.0079
   10   1 O    8       3.770000   31.650002   29.018000       6.0000     15.9994
   11   2 H    1       4.610000   31.660002   29.568000       1.0000      1.0079
   12   2 H    1      11.770000   16.170002   29.188000       1.0000      1.0079
   13   1 O    8      23.470001   21.240002   32.718000       6.0000     15.9994
   14   2 H    1      23.250000   22.110003   32.348000       1.0000      1.0079
   15   2 H    1      23.330002   21.210001   33.688000       1.0000      1.0079
   16   1 O    8      -7.660000    7.420001   32.358000       6.0000     15.9994
   17   2 H    1      -6.660000    7.510000   32.148000       1.0000      1.0079
   18   2 H    1      -7.730001    7.790000   33.248000       1.0000      1.0079
   19   1 O    8      37.150002  -27.889999   33.698001       6.0000     15.9994
   20   2 H    1      37.160000  -27.040003   33.128001       1.0000      1.0079
   21   2 H    1      54.700005  -28.450001   33.318001       1.0000      1.0079
   22   1 O    8      -0.790000  -40.580002   34.518001       6.0000     15.9994
   23   2 H    1      -0.720000  -40.130001   33.678000       1.0000      1.0079
   24   2 H    1      -1.400000  -40.300003   35.248000       1.0000      1.0079
   25   1 O    8      -7.850000   14.600000   30.148000       6.0000     15.9994
   26   2 H    1      -7.610001   14.510001   31.128000       1.0000      1.0079
   27   2 H    1      -8.210000   15.500001   29.858000       1.0000      1.0079
   28   1 O    8       3.450000   -1.910000   32.478000       6.0000     15.9994
   29   2 H    1       4.270000   -1.360000   32.698000       1.0000      1.0079
   30   2 H    1       3.480000   -2.060000   31.478001       1.0000      1.0079
   31   1 O    8     -22.440002  -14.560001   29.038000       6.0000     15.9994
   32   2 H    1     -23.380001  -14.640001   29.588000       1.0000      1.0079
   33   2 H    1     -21.970001  -15.450001   29.078000       1.0000      1.0079
   34   1 O    8       0.030000   -4.020000   34.028001       6.0000     15.9994
   35   2 H    1      -0.730000   -4.260000   33.398000       1.0000      1.0079
   36   2 H    1      -0.130000   -3.270000   34.688001       1.0000      1.0079
   37   1 O    8      29.350002    2.310000   29.238000       6.0000     15.9994
   38   2 H    1      28.730001    3.080000   29.528000       1.0000      1.0079
   39   2 H    1      12.130001    1.530000   29.848000       1.0000      1.0079
   40   1 O    8      -2.520000    9.430000   29.878000       6.0000     15.9994
   41   2 H    1      -3.210000    9.120001   29.198000       1.0000      1.0079
   42   2 H    1      -1.870000    8.790001   29.618000       1.0000      1.0079
   43   1 O    8      22.450001   14.150001   30.058000       6.0000     15.9994
   44   2 H    1      22.570002   14.350000   29.078000       1.0000      1.0079
   45   2 H    1      23.340000   13.830000   30.218000       1.0000      1.0079
   46   1 O    8      13.830000   23.850002   29.288000       6.0000     15.9994
   47   2 H    1      13.100000   23.120001   29.298000       1.0000      1.0079
   48   2 H    1      14.760000   23.510000   29.488000       1.0000      1.0079
   49   1 O    8       2.670000   24.250002   30.418001       6.0000     15.9994
   50   2 H    1       2.500000   24.440001   31.308000       1.0000      1.0079
   51   2 H    1       2.850000   23.310001   30.208000       1.0000      1.0079
   52   1 O    8       7.600000   14.820002   36.898000       6.0000     15.9994
   53   2 H    1       7.150001   14.830000   37.768001       1.0000      1.0079
   54   2 H    1       7.970000   15.710001   37.008001       1.0000      1.0079
   55   1 O    8     -13.800001   30.890003   36.428001       6.0000     15.9994
   56   2 H    1       3.220000   31.000002   35.418001       1.0000      1.0079
   57   2 H    1     -13.980001   29.940002   36.568000       1.0000      1.0079
   58   1 O    8      14.080001  -11.630001   30.908000       6.0000     15.9994
   59   2 H    1      13.910000  -11.930000   31.787999       1.0000      1.0079
   60   2 H    1      15.030001  -12.040001   30.617999       1.0000      1.0079
   61   1 O    8      -3.740000   -6.250000   32.178000       6.0000     15.9994
   62   2 H    1      -3.660000   -7.190001   32.448001       1.0000      1.0079
   63   2 H    1      -4.240000   -6.210001   31.338001       1.0000      1.0079
   64   1 O    8       8.010000  -10.540000   35.158000       6.0000     15.9994
   65   2 H    1       7.620000  -11.260000   34.498000       1.0000      1.0079
   66   2 H    1       7.270000   -9.910001   35.358001       1.0000      1.0079
   67   1 O    8     -27.990000   46.530003   33.578000       6.0000     15.9994
   68   2 H    1     -28.580000   46.910000   34.248000       1.0000      1.0079
   69   2 H    1     -27.910002   45.650002   33.968000       1.0000      1.0079
   70   1 O    8     -38.390003   -4.910000   34.348000       6.0000     15.9994
   71   2 H    1     -39.190002   -4.400000   33.978001       1.0000      1.0079
   72   2 H    1     -37.990002   -5.270000   33.447999       1.0000      1.0079
   73   1 O    8      13.920001   14.820002   32.538000       6.0000     15.9994
   74   2 H    1      14.240000   14.720001   31.607999       1.0000      1.0079
   75   2 H    1      14.810000   14.960001   32.998000       1.0000      1.0079
   76   1 O    8      17.300001   -1.490000   35.228001       6.0000     15.9994
   77   2 H    1       8.370000   13.730000   35.878000       1.0000      1.0079
   78   2 H    1      17.690001   -0.850000   34.528000       1.0000      1.0079
   79   1 O    8     -17.350002   -9.730001   32.468001       6.0000     15.9994
   80   2 H    1     -17.350002  -10.180000   31.528001       1.0000      1.0079
   81   2 H    1     -17.060001   -8.780001   32.448001       1.0000      1.0079
   82   1 O    8     -38.560001    6.080000   33.088001       6.0000     15.9994
   83   2 H    1     -38.639999    5.350000   33.708000       1.0000      1.0079
   84   2 H    1     -37.710003    6.040000   32.558000       1.0000      1.0079
   85   1 O    8       8.690001   37.290001   35.228001       6.0000     15.9994
   86   2 H    1       8.670000   38.240002   34.878000       1.0000      1.0079
   87   2 H    1      26.140001   37.310001   36.048001       1.0000      1.0079
   88   1 O    8      31.140001   -5.170000   36.338001       6.0000     15.9994
   89   2 H    1      30.950001   -6.110000   36.068000       1.0000      1.0079
   90   2 H    1      30.560001   -4.720000   35.708000       1.0000      1.0079
   91   1 O    8       0.830000    7.450001   32.678001       6.0000     15.9994
   92   2 H    1       1.180000    6.930000   33.508001       1.0000      1.0079
   93   2 H    1      -0.100000    7.120000   32.688000       1.0000      1.0079
   94   1 O    8       9.860001  -15.000001   32.828000       6.0000     15.9994
   95   2 H    1      10.510000  -14.260001   33.158000       1.0000      1.0079
   96   2 H    1      10.590000  -15.690001   32.758000       1.0000      1.0079
   97   1 O    8      22.920000  -11.420001   31.068000       6.0000     15.9994
   98   2 H    1      22.369999  -11.480000   31.898000       1.0000      1.0079
   99   2 H    1      30.760002    2.910000   30.318000       1.0000      1.0079
  100   1 O    8      -6.780000   -9.080001   34.348000       6.0000     15.9994
  101   2 H    1      -6.310000   -9.520000   33.588001       1.0000      1.0079
  102   2 H    1      -7.560000   -9.590000   34.648000       1.0000      1.0079
  103   1 O    8       7.900000    8.150001   29.928001       6.0000     15.9994
  104   2 H    1      -8.190001    8.530001   29.378001       1.0000      1.0079
  105   2 H    1       8.290001    8.140000   30.808000       1.0000      1.0079
  106   1 O    8      18.730001  -16.740000   36.588000       6.0000     15.9994
  107   2 H    1      10.640000   -2.090000   35.658000       1.0000      1.0079
  108   2 H    1      18.090002  -17.500002   36.568000       1.0000      1.0079
  109   1 O    8     -19.080002   14.410001   29.908000       6.0000     15.9994
  110   2 H    1     -18.530001   13.520001   29.968000       1.0000      1.0079
  111   2 H    1     -19.300001   14.650001   28.928000       1.0000      1.0079
  112   1 O    8     -21.210001   12.300000   29.688000       6.0000     15.9994
  113   2 H    1     -20.340002   12.450000   29.268000       1.0000      1.0079
  114   2 H    1     -21.470001   11.490001   29.228000       1.0000      1.0079
  115   1 O    8      -3.960000    9.660000   36.738001       6.0000     15.9994
  116   2 H    1      -4.210001    9.190001   35.938001       1.0000      1.0079
  117   2 H    1      -3.690000   10.570001   36.368000       1.0000      1.0079
  118   1 O    8       5.200000    5.870000   33.048000       6.0000     15.9994
  119   2 H    1       5.380001    6.120000   33.988000       1.0000      1.0079
  120   2 H    1       6.120000    5.700001   32.718000       1.0000      1.0079
  121   1 O    8      26.160002   27.210003   32.468001       6.0000     15.9994
  122   2 H    1      25.930002   27.610001   31.607999       1.0000      1.0079
  123   2 H    1      26.180000   26.220001   32.338001       1.0000      1.0079
  124   1 O    8       4.850000   -2.220000   35.648000       6.0000     15.9994
  125   2 H    1       5.320000   -2.430000   34.838001       1.0000      1.0079
  126   2 H    1       5.400000   -1.560000   36.178001       1.0000      1.0079
  127   1 O    8      -2.560000   38.560001   32.438000       6.0000     15.9994
  128   2 H    1      -2.730000   38.550003   31.518000       1.0000      1.0079
  129   2 H    1      -3.420000   38.440002   32.848001       1.0000      1.0079
  130   1 O    8      14.560001   21.370001   35.408000       6.0000     15.9994
  131   2 H    1      14.350000   20.830002   36.288000       1.0000      1.0079
  132   2 H    1      15.530001   21.580000   35.368000       1.0000      1.0079
  133   1 O    8     -17.260000   16.550001   30.228000       6.0000     15.9994
  134   2 H    1     -17.370001   16.700001   29.228000       1.0000      1.0079
  135   2 H    1     -17.730001   15.690001   30.368000       1.0000      1.0079
  136   1 O    8      10.930000    4.090000   30.758001       6.0000     15.9994
  137   2 H    1      11.260000    4.800000   31.327999       1.0000      1.0079
  138   2 H    1      10.430001    3.480000   31.308000       1.0000      1.0079
  139   1 O    8      18.940001    4.220000   30.238000       6.0000     15.9994
  140   2 H    1      19.280001    4.140000   29.288000       1.0000      1.0079
  141   2 H    1      18.150002    3.660000   30.388000       1.0000      1.0079
  142   1 O    8      26.870001   24.670000   32.448001       6.0000     15.9994
  143   2 H    1      26.530001   23.720001   32.748000       1.0000      1.0079
  144   2 H    1      26.910002   24.680002   31.448000       1.0000      1.0079
  145   1 O    8      15.930000   -2.950000   30.038000       6.0000     15.9994
  146   2 H    1      16.760002   -2.450000   29.828000       1.0000      1.0079
  147   2 H    1      15.680000   -3.160000   29.068000       1.0000      1.0079
  148   1 O    8       2.690000  -16.010000   34.168001       6.0000     15.9994
  149   2 H    1       3.580000  -16.270000   33.868000       1.0000      1.0079
  150   2 H    1      18.830002  -16.360001   33.568000       1.0000      1.0079
  151   1 O    8       6.530001  -18.790001   32.148000       6.0000     15.9994
  152   2 H    1       7.020000  -18.470001   31.408000       1.0000      1.0079
  153   2 H    1       6.060000  -19.610001   31.938001       1.0000      1.0079
  154   1 O    8      29.139999    8.610001   34.318000       6.0000     15.9994
  155   2 H    1      28.390003    9.110001   33.898000       1.0000      1.0079
  156   2 H    1      12.270001    7.610001   34.098001       1.0000      1.0079
  157   1 O    8     -11.220001  -23.600002   29.968000       6.0000     15.9994
  158   2 H    1     -10.720000  -23.740002   29.058000       1.0000      1.0079
  159   2 H    1     -11.450001  -24.490002   30.278000       1.0000      1.0079
  160   1 O    8      11.120001   22.180002   35.788000       6.0000     15.9994
  161   2 H    1      11.270000   23.000002   35.248000       1.0000      1.0079
  162   2 H    1      10.720000   21.400002   35.298001       1.0000      1.0079
  163   1 O    8      33.510002   10.790000   36.468000       6.0000     15.9994
  164   2 H    1      32.940002   10.720000   35.638001       1.0000      1.0079
  165   2 H    1      32.900002   11.270000   37.097999       1.0000      1.0079
  166   1 O    8      14.160000   29.530001   34.878000       6.0000     15.9994
  167   2 H    1      13.360001   29.480001   35.428001       1.0000      1.0079
  168   2 H    1      14.830000   29.500000   35.638001       1.0000      1.0079
  169   1 O    8     -12.580000   11.890000   29.378001       6.0000     15.9994
  170   2 H    1     -11.910001   12.630000   29.718000       1.0000      1.0079
  171   2 H    1     -12.050000   11.040001   29.268000       1.0000      1.0079
  172   1 O    8      23.040001   -8.520000   35.558001       6.0000     15.9994
  173   2 H    1      23.620003   -7.810000   35.978000       1.0000      1.0079
  174   2 H    1      22.350002   -8.630000   36.248000       1.0000      1.0079
  175   1 O    8     -22.400000   36.260002   30.098000       6.0000     15.9994
  176   2 H    1     -22.550001   36.440002   29.058000       1.0000      1.0079
  177   2 H    1     -21.450003   36.000000   30.148000       1.0000      1.0079
  178   1 O    8      -0.050000    2.760000   29.978000       6.0000     15.9994
  179   2 H    1      -0.980000    2.790000   30.388000       1.0000      1.0079
  180   2 H    1      -0.130000    2.770000   29.008000       1.0000      1.0079
  181   1 O    8      31.760002   11.830001   33.608000       6.0000     15.9994
  182   2 H    1      31.540001   10.910001   33.328000       1.0000      1.0079
  183   2 H    1      32.680000   12.050000   33.308000       1.0000      1.0079
  184   1 O    8     -15.610001   14.070001   29.858000       6.0000     15.9994
  185   2 H    1     -15.390000   13.450001   29.158000       1.0000      1.0079
  186   2 H    1     -16.280001   14.680000   29.528000       1.0000      1.0079
  187   1 O    8      -6.030001   10.190001   33.218000       6.0000     15.9994
  188   2 H    1      -5.490000   11.000000   33.358000       1.0000      1.0079
  189   2 H    1      -6.930000   10.490000   33.598001       1.0000      1.0079
  190   1 O    8     -22.020000   18.550001   32.718000       6.0000     15.9994
  191   2 H    1     -21.270000   19.210001   32.787999       1.0000      1.0079
  192   2 H    1     -22.390001   18.590000   31.768000       1.0000      1.0079
  193   1 O    8      27.810001   13.550000   36.428001       6.0000     15.9994
  194   2 H    1      27.020000   13.230000   35.898000       1.0000      1.0079
  195   2 H    1      28.570002   12.990000   36.268001       1.0000      1.0079
  196   1 O    8      -5.270000    4.000000   34.548000       6.0000     15.9994
  197   2 H    1      -5.550000    3.090000   34.228000       1.0000      1.0079
  198   2 H    1      -5.640000    4.000000   35.458000       1.0000      1.0079
  199   1 O    8     -15.850000    6.700000   30.178000       6.0000     15.9994
  200   2 H    1     -15.650001    5.750000   30.058000       1.0000      1.0079
  201   2 H    1     -15.910001    6.870000   31.148000       1.0000      1.0079
  202   1 O    8      -6.810000   -3.950000   29.818000       6.0000     15.9994
  203   2 H    1      -5.880000   -3.500000   29.498000       1.0000      1.0079
  204   2 H    1      -6.870000   -4.650001   29.108000       1.0000      1.0079
  205   1 O    8      15.320001   13.830000   36.648000       6.0000     15.9994
  206   2 H    1      15.690001   14.280001   35.798000       1.0000      1.0079
  207   2 H    1      15.080000   14.630001   37.188001       1.0000      1.0079
  208   1 O    8      -3.240000   -1.650000   33.018000       6.0000     15.9994
  209   2 H    1      -2.920000   -2.550000   33.088001       1.0000      1.0079
  210   2 H    1      -2.790000   -1.180000   33.738000       1.0000      1.0079
  211   1 O    8       6.030001    2.810000   36.778000       6.0000     15.9994
  212   2 H    1       5.520000    2.030000   36.528001       1.0000      1.0079
  213   2 H    1       6.710000    2.570000   37.498000       1.0000      1.0079
  214   1 O    8     -18.060001    7.130001   29.048000       6.0000     15.9994
  215   2 H    1     -17.120001    6.970000   29.328000       1.0000      1.0079
  216   2 H    1     -18.730001    6.470000   29.408000       1.0000      1.0079
  217   1 O    8      -4.790000   22.100000   29.628000       6.0000     15.9994
  218   2 H    1      11.050000   21.950001   29.508000       1.0000      1.0079
  219   2 H    1      12.510000   21.190002   29.828000       1.0000      1.0079
  220   1 O    8      16.080000   15.090000   34.348000       6.0000     15.9994
  221   2 H    1      17.020000   14.880000   34.108001       1.0000      1.0079
  222   2 H    1      16.080000   16.080000   34.568001       1.0000      1.0079
  223   1 O    8      -9.440001  -31.890001   29.978000       6.0000     15.9994
  224   2 H    1      -8.710001  -32.050003   29.378001       1.0000      1.0079
  225   2 H    1     -10.030001  -32.690002   30.018000       1.0000      1.0079
  226   1 O    8      -5.150001   29.880001   31.238000       6.0000     15.9994
  227   2 H    1      -5.810000   29.230001   30.858000       1.0000      1.0079
  228   2 H    1      -4.430000   29.290001   31.468000       1.0000      1.0079
  229   1 O    8     -32.480003  -11.260000   36.278001       6.0000     15.9994
  230   2 H    1     -33.049999  -11.290001   35.498000       1.0000      1.0079
  231   2 H    1     -15.570001  -12.190001   36.678001       1.0000      1.0079
  232   3 Pt  78       1.520000    0.680000   15.230003      10.0000    195.0840
  233   3 Pt  78       4.340000    0.600000   15.119999      10.0000    195.0840
  234   3 Pt  78       7.140000    0.610000   15.040001      10.0000    195.0840
  235   3 Pt  78       9.910001    0.640000   15.270000      10.0000    195.0840
  236   3 Pt  78      12.770000    0.660000   15.000000      10.0000    195.0840
  237   3 Pt  78      15.580001    0.800000   15.119999      10.0000    195.0840
  238   3 Pt  78       3.040000    3.050000   15.170002      10.0000    195.0840
  239   3 Pt  78       5.800000    3.020000   15.209999      10.0000    195.0840
  240   3 Pt  78       8.570001    3.050000   15.310001      10.0000    195.0840
  241   3 Pt  78      11.400002    3.120000   15.310001      10.0000    195.0840
  242   3 Pt  78      14.200001    3.150000   15.150002      10.0000    195.0840
  243   3 Pt  78       0.240000    3.080000   15.270000      10.0000    195.0840
  244   3 Pt  78       4.300000    5.520000   15.060001      10.0000    195.0840
  245   3 Pt  78       7.190001    5.510000   15.279999      10.0000    195.0840
  246   3 Pt  78       9.800000    5.470000   15.190002      10.0000    195.0840
  247   3 Pt  78      12.870001    5.450000   15.270000      10.0000    195.0840
  248   3 Pt  78      -1.160000    5.540000   15.220001      10.0000    195.0840
  249   3 Pt  78       1.590000    5.520000   15.190002      10.0000    195.0840
  250   3 Pt  78       5.740000    8.010000   15.190002      10.0000    195.0840
  251   3 Pt  78       8.560000    7.880001   15.290001      10.0000    195.0840
  252   3 Pt  78      11.390000    7.850000   15.300003      10.0000    195.0840
  253   3 Pt  78      -2.730000    7.980001   15.370003      10.0000    195.0840
  254   3 Pt  78       0.050000    8.030001   15.330002      10.0000    195.0840
  255   3 Pt  78       2.860000    7.950000   15.279999      10.0000    195.0840
  256   3 Pt  78       7.190001   10.380001   15.240002      10.0000    195.0840
  257   3 Pt  78       9.900001   10.320001   15.130001      10.0000    195.0840
  258   3 Pt  78      -4.120000   10.360001   15.230003      10.0000    195.0840
  259   3 Pt  78      -1.360000   10.410000   15.450001      10.0000    195.0840
  260   3 Pt  78       1.580000   10.570001   15.400002      10.0000    195.0840
  261   3 Pt  78       4.360000   10.370001   15.279999      10.0000    195.0840
  262   3 Pt  78       8.550000   12.860001   15.110001      10.0000    195.0840
  263   3 Pt  78      -5.590000   12.880001   15.240002      10.0000    195.0840
  264   3 Pt  78      -2.680000   12.800001   15.220001      10.0000    195.0840
  265   3 Pt  78       0.130000   12.920000   15.230003      10.0000    195.0840
  266   3 Pt  78       2.960000   12.890000   15.270000      10.0000    195.0840
  267   3 Pt  78       5.820000   12.760000   15.130001      10.0000    195.0840
  268   3 Pt  78       0.190000    1.490000   17.500000      10.0000    195.0840
  269   3 Pt  78       3.050000    1.460000   17.500000      10.0000    195.0840
  270   3 Pt  78       5.830000    1.510000   17.560001      10.0000    195.0840
  271   3 Pt  78       8.570001    1.330000   17.580002      10.0000    195.0840
  272   3 Pt  78      11.440001    1.430000   17.490002      10.0000    195.0840
  273   3 Pt  78      14.260001    1.460000   17.610001      10.0000    195.0840
  274   3 Pt  78       1.630000    3.930000   17.500000      10.0000    195.0840
  275   3 Pt  78       4.450000    3.920000   17.440002      10.0000    195.0840
  276   3 Pt  78       7.250000    3.910000   17.740002      10.0000    195.0840
  277   3 Pt  78       9.900001    3.930000   17.630001      10.0000    195.0840
  278   3 Pt  78      12.900001    3.970000   17.560001      10.0000    195.0840
  279   3 Pt  78      -1.210000    3.980000   17.490002      10.0000    195.0840
  280   3 Pt  78       3.100000    6.340000   17.530003      10.0000    195.0840
  281   3 Pt  78       5.790000    6.380000   17.480000      10.0000    195.0840
  282   3 Pt  78       8.640000    6.310000   17.680000      10.0000    195.0840
  283   3 Pt  78      11.320001    6.320000   17.570000      10.0000    195.0840
  284   3 Pt  78      -2.570000    6.360001   17.590004      10.0000    195.0840
  285   3 Pt  78       0.410000    6.350000   17.650002      10.0000    195.0840
  286   3 Pt  78       4.390000    8.840000   17.650002      10.0000    195.0840
  287   3 Pt  78       7.190001    8.780001   17.619999      10.0000    195.0840
  288   3 Pt  78      10.020000    8.740000   17.549999      10.0000    195.0840
  289   3 Pt  78      -4.180000    8.770000   17.510002      10.0000    195.0840
  290   3 Pt  78      -1.180000    8.720000   17.600002      10.0000    195.0840
  291   3 Pt  78       1.650000    8.810000   17.570000      10.0000    195.0840
  292   3 Pt  78       5.830000   11.320001   17.630001      10.0000    195.0840
  293   3 Pt  78       8.610001   11.260000   17.560001      10.0000    195.0840
  294   3 Pt  78      -5.450000   11.200000   17.480000      10.0000    195.0840
  295   3 Pt  78      -2.670000   11.180000   17.690002      10.0000    195.0840
  296   3 Pt  78       0.200000   11.180000   17.610001      10.0000    195.0840
  297   3 Pt  78       3.100000   11.300000   17.760002      10.0000    195.0840
  298   3 Pt  78       7.210000   13.690001   17.460003      10.0000    195.0840
  299   3 Pt  78      -6.950001   13.640001   17.560001      10.0000    195.0840
  300   3 Pt  78      -4.040000   13.700001   17.540001      10.0000    195.0840
  301   3 Pt  78      -1.240000   13.620001   17.530003      10.0000    195.0840
  302   3 Pt  78       1.550000   13.650000   17.709999      10.0000    195.0840
  303   3 Pt  78       4.460000   13.700001   17.530003      10.0000    195.0840
  304   3 Pt  78      -8.210000   14.520000   19.830002      10.0000    195.0840
  305   3 Pt  78      -5.380001   14.550000   19.770000      10.0000    195.0840
  306   3 Pt  78      -2.630000   14.430000   19.800003      10.0000    195.0840
  307   3 Pt  78       0.170000   14.410001   19.990002      10.0000    195.0840
  308   3 Pt  78       3.000000   14.500000   19.930000      10.0000    195.0840
  309   3 Pt  78       5.760000   14.530001   20.040005      10.0000    195.0840
  310   3 Pt  78       1.600000    2.370000   19.790001      10.0000    195.0840
  311   3 Pt  78       4.420000    2.410000   19.900002      10.0000    195.0840
  312   3 Pt  78       7.230001    2.310000   19.970001      10.0000    195.0840
  313   3 Pt  78      10.000000    2.200000   19.910004      10.0000    195.0840
  314   3 Pt  78      12.940001    2.260000   19.970001      10.0000    195.0840
  315   3 Pt  78      -1.180000    2.340000   19.870003      10.0000    195.0840
  316   3 Pt  78       3.100000    4.780000   19.880001      10.0000    195.0840
  317   3 Pt  78       5.870000    4.810000   19.880001      10.0000    195.0840
  318   3 Pt  78       8.750001    4.800000   19.990002      10.0000    195.0840
  319   3 Pt  78      11.420001    4.750000   19.880001      10.0000    195.0840
  320   3 Pt  78      -2.640000    4.780000   19.860001      10.0000    195.0840
  321   3 Pt  78       0.240000    4.700000   19.889999      10.0000    195.0840
  322   3 Pt  78       4.470000    7.300000   19.910004      10.0000    195.0840
  323   3 Pt  78       7.180000    7.230001   19.880001      10.0000    195.0840
  324   3 Pt  78       9.980000    7.310000   19.850002      10.0000    195.0840
  325   3 Pt  78      -4.110000    7.150001   19.889999      10.0000    195.0840
  326   3 Pt  78      -1.140000    7.150001   19.920002      10.0000    195.0840
  327   3 Pt  78       1.600000    7.210000   19.910004      10.0000    195.0840
  328   3 Pt  78       5.860000    9.720000   19.860001      10.0000    195.0840
  329   3 Pt  78       8.600000    9.700001   19.830002      10.0000    195.0840
  330   3 Pt  78      -5.360000    9.690001   19.820000      10.0000    195.0840
  331   3 Pt  78      -2.650000    9.560000   19.880001      10.0000    195.0840
  332   3 Pt  78       0.290000    9.600000   19.940002      10.0000    195.0840
  333   3 Pt  78       3.050000    9.650001   19.980003      10.0000    195.0840
  334   3 Pt  78       7.230001   12.130001   19.870003      10.0000    195.0840
  335   3 Pt  78      -6.840000   12.100000   19.770000      10.0000    195.0840
  336   3 Pt  78      -4.070000   12.120000   19.880001      10.0000    195.0840
  337   3 Pt  78      -1.230000   12.000000   19.840004      10.0000    195.0840
  338   3 Pt  78       1.550000   12.070000   20.050003      10.0000    195.0840
  339   3 Pt  78       4.330000   12.200001   19.959999      10.0000    195.0840
  340   3 Pt  78       1.610000    0.660000   22.048000      10.0000    195.0840
  341   3 Pt  78       4.490000    0.620000   22.048000      10.0000    195.0840
  342   3 Pt  78       7.250000    0.640000   22.258000      10.0000    195.0840
  343   3 Pt  78       9.900001    0.690000   22.268000      10.0000    195.0840
  344   3 Pt  78      12.750001    0.670000   22.318000      10.0000    195.0840
  345   3 Pt  78      15.540000    0.720000   22.258000      10.0000    195.0840
  346   3 Pt  78       3.080000    3.070000   22.198000      10.0000    195.0840
  347   3 Pt  78       5.720000    3.190000   22.288000      10.0000    195.0840
  348   3 Pt  78       8.530001    3.200000   22.278000      10.0000    195.0840
  349   3 Pt  78      11.360001    3.100000   22.208000      10.0000    195.0840
  350   3 Pt  78      14.190001    3.110000   22.218000      10.0000    195.0840
  351   3 Pt  78       0.150000    3.070000   22.238000      10.0000    195.0840
  352   3 Pt  78       4.380000    5.600000   22.218000      10.0000    195.0840
  353   3 Pt  78       7.140000    5.710001   22.198000      10.0000    195.0840
  354   3 Pt  78       9.900001    5.640000   22.268000      10.0000    195.0840
  355   3 Pt  78      12.720001    5.550000   22.208000      10.0000    195.0840
  356   3 Pt  78      -1.230000    5.510000   22.158000      10.0000    195.0840
  357   3 Pt  78       1.660000    5.440001   22.178000      10.0000    195.0840
  358   3 Pt  78       5.790000    8.070001   22.208000      10.0000    195.0840
  359   3 Pt  78       8.560000    8.050001   22.248000      10.0000    195.0840
  360   3 Pt  78      11.420001    7.940001   22.248000      10.0000    195.0840
  361   3 Pt  78      -2.660000    7.890000   22.208000      10.0000    195.0840
  362   3 Pt  78       0.180000    7.930000   22.248000      10.0000    195.0840
  363   3 Pt  78       3.020000    7.920001   22.238000      10.0000    195.0840
  364   3 Pt  78       7.200000   10.500001   22.198000      10.0000    195.0840
  365   3 Pt  78       9.960001   10.430001   22.128000      10.0000    195.0840
  366   3 Pt  78      -4.050000   10.430001   22.108000      10.0000    195.0840
  367   3 Pt  78      -1.200000   10.310000   22.238000      10.0000    195.0840
  368   3 Pt  78       1.490000   10.430001   22.358000      10.0000    195.0840
  369   3 Pt  78       4.380000   10.460000   22.238000      10.0000    195.0840
  370   3 Pt  78       8.580000   12.930001   22.158000      10.0000    195.0840
  371   3 Pt  78      -5.490000   12.800001   21.988000      10.0000    195.0840
  372   3 Pt  78      -2.690000   12.830001   22.218000      10.0000    195.0840
  373   3 Pt  78       0.110000   12.800001   22.318000      10.0000    195.0840
  374   3 Pt  78       2.880000   12.910000   22.388000      10.0000    195.0840
  375   3 Pt  78       5.710001   12.840000   22.338000      10.0000    195.0840
  376   3 Pt  78       0.090000    1.510000   24.378000      10.0000    195.0840
  377   3 Pt  78       2.870000    1.410000   24.348000      10.0000    195.0840
  378   3 Pt  78       5.620000    1.620000   24.448000      10.0000    195.0840
  379   3 Pt  78       8.490001    1.620000   24.618000      10.0000    195.0840
  380   3 Pt  78      11.270000    1.490000   24.598000      10.0000    195.0840
  381   3 Pt  78      14.080001    1.460000   24.598000      10.0000    195.0840
  382   3 Pt  78       1.530000    3.920000   24.408000      10.0000    195.0840
  383   3 Pt  78       4.310000    3.910000   24.558000      10.0000    195.0840
  384   3 Pt  78       7.130001    4.080000   24.638000      10.0000    195.0840
  385   3 Pt  78      10.020000    4.030000   24.648000      10.0000    195.0840
  386   3 Pt  78      12.690001    3.980000   24.548000      10.0000    195.0840
  387   3 Pt  78      -1.410000    3.980000   24.568000      10.0000    195.0840
  388   3 Pt  78       2.970000    6.310000   24.508000      10.0000    195.0840
  389   3 Pt  78       5.720000    6.490001   24.608000      10.0000    195.0840
  390   3 Pt  78       8.540000    6.540000   24.638000      10.0000    195.0840
  391   3 Pt  78      11.380000    6.530001   24.688000      10.0000    195.0840
  392   3 Pt  78      -2.730000    6.460000   24.528000      10.0000    195.0840
  393   3 Pt  78       0.160000    6.280000   24.448000      10.0000    195.0840
  394   3 Pt  78       4.300000    8.830000   24.508000      10.0000    195.0840
  395   3 Pt  78       7.270000    8.980000   24.498000      10.0000    195.0840
  396   3 Pt  78       9.960001    8.900001   24.548000      10.0000    195.0840
  397   3 Pt  78      -4.120000    8.810000   24.468000      10.0000    195.0840
  398   3 Pt  78      -1.210000    8.760000   24.528000      10.0000    195.0840
  399   3 Pt  78       1.560000    8.800000   24.528000      10.0000    195.0840
  400   3 Pt  78       5.770000   11.280001   24.688000      10.0000    195.0840
  401   3 Pt  78       8.520000   11.340000   24.448000      10.0000    195.0840
  402   3 Pt  78      -5.540000   11.260000   24.338000      10.0000    195.0840
  403   3 Pt  78      -2.710000   11.310000   24.518000      10.0000    195.0840
  404   3 Pt  78       0.060000   11.190001   24.608000      10.0000    195.0840
  405   3 Pt  78       2.940000   11.250000   24.598000      10.0000    195.0840
  406   3 Pt  78       7.080000   13.760000   24.498000      10.0000    195.0840
  407   3 Pt  78      -6.970000   13.680000   24.388000      10.0000    195.0840
  408   3 Pt  78      -4.150000   13.720001   24.358000      10.0000    195.0840
  409   3 Pt  78      -1.430000   13.730000   24.618000      10.0000    195.0840
  410   3 Pt  78       1.420000   13.720001   24.598000      10.0000    195.0840
  411   3 Pt  78       4.220000   13.620001   24.678000      10.0000    195.0840
  412   3 Pt  78      -8.540000   14.500000   26.748000      10.0000    195.0840
  413   3 Pt  78      -5.740000   14.580001   26.688000      10.0000    195.0840
  414   3 Pt  78      -2.850000   14.560001   26.888000      10.0000    195.0840
  415   3 Pt  78      -0.070000   14.580001   26.998000      10.0000    195.0840
  416   3 Pt  78       2.730000   14.530001   26.898000      10.0000    195.0840
  417   3 Pt  78       5.590000   14.470000   26.908000      10.0000    195.0840
  418   3 Pt  78       1.360000    2.520000   26.688000      10.0000    195.0840
  419   3 Pt  78       4.180000    2.490000   26.787999      10.0000    195.0840
  420   3 Pt  78       6.960001    2.320000   26.978000      10.0000    195.0840
  421   3 Pt  78       9.790000    2.480000   26.918000      10.0000    195.0840
  422   3 Pt  78      12.670001    2.320000   27.018000      10.0000    195.0840
  423   3 Pt  78      -1.450000    2.320000   26.858000      10.0000    195.0840
  424   3 Pt  78       2.600000    4.960000   26.718000      10.0000    195.0840
  425   3 Pt  78       5.520000    4.850000   26.848000      10.0000    195.0840
  426   3 Pt  78       8.280001    4.750000   26.958000      10.0000    195.0840
  427   3 Pt  78      11.290001    4.880000   26.938000      10.0000    195.0840
  428   3 Pt  78      -2.850000    4.670000   26.908000      10.0000    195.0840
  429   3 Pt  78      -0.090000    4.690000   26.787999      10.0000    195.0840
  430   3 Pt  78       4.170000    7.200000   26.918000      10.0000    195.0840
  431   3 Pt  78       7.020000    7.230001   26.708000      10.0000    195.0840
  432   3 Pt  78       9.880000    7.220001   26.938000      10.0000    195.0840
  433   3 Pt  78      -4.300000    7.210000   27.028000      10.0000    195.0840
  434   3 Pt  78      -1.610000    7.210000   26.998000      10.0000    195.0840
  435   3 Pt  78       1.270000    7.310000   26.728000      10.0000    195.0840
  436   3 Pt  78       5.450000    9.620001   26.938000      10.0000    195.0840
  437   3 Pt  78       8.460000    9.530001   26.898000      10.0000    195.0840
  438   3 Pt  78      -5.620000    9.660000   26.948000      10.0000    195.0840
  439   3 Pt  78      -3.020000    9.630001   26.768000      10.0000    195.0840
  440   3 Pt  78      -0.250000    9.590000   27.088000      10.0000    195.0840
  441   3 Pt  78       2.560000    9.710001   26.787999      10.0000    195.0840
  442   3 Pt  78       7.080000   12.010001   26.948000      10.0000    195.0840
  443   3 Pt  78      -7.110000   12.070000   26.768000      10.0000    195.0840
  444   3 Pt  78      -4.310000   12.210001   26.638000      10.0000    195.0840
  445   3 Pt  78      -1.480000   11.990000   26.968000      10.0000    195.0840
  446   3 Pt  78       1.250000   12.100000   26.898000      10.0000    195.0840
  447   3 Pt  78       3.880000   12.120000   27.048000      10.0000    195.0840




 SCF PARAMETERS         Density guess:                                   RESTART
                        --------------------------------------------------------
                        max_scf:                                             500
                        max_scf_history:                                       0
                        max_diis:                                              4
                        --------------------------------------------------------
                        eps_scf:                                        1.00E-04
                        eps_scf_history:                                0.00E+00
                        eps_diis:                                       1.00E-01
                        eps_eigval:                                     1.00E-05
                        --------------------------------------------------------
                        level_shift [a.u.]:                             0.000000
                        added MOs                                       500    0
                        --------------------------------------------------------
                        Mixing method:                            BROYDEN_MIXING
                                                charge density mixing in g-space
                        --------------------------------------------------------
                        Smear method:                                FERMI_DIRAC
                        Electronic temperature [K]:                        300.0
                        Electronic temperature [a.u.]:                  9.50E-04
                        Accuracy threshold:                             1.00E-10
                        --------------------------------------------------------
                        No outer SCF

 PW_GRID| Information for grid number                                          1
 PW_GRID| Grid distributed over                                   128 processors
 PW_GRID| Real space group dimensions                                   128    1
 PW_GRID| the grid is blocked:                                                NO
 PW_GRID| Cutoff [a.u.]                                                    200.0
 PW_GRID| spherical cutoff:                                                   NO
 PW_GRID|   Bounds   1           -105     104                Points:         210
 PW_GRID|   Bounds   2           -105     104                Points:         210
 PW_GRID|   Bounds   3           -432     431                Points:         864
 PW_GRID| Volume element (a.u.^3)  0.3120E-02     Volume (a.u.^3)    118871.7965
 PW_GRID| Grid span                                                    FULLSPACE
 PW_GRID|   Distribution                         Average         Max         Min
 PW_GRID|   G-Vectors                           297675.0      297780      297570
 PW_GRID|   G-Rays                                1417.5        1418        1417
 PW_GRID|   Real Space Points                   297675.0      362880      181440

 PW_GRID| Information for grid number                                          2
 PW_GRID| Number of the reference grid                                         1
 PW_GRID| Grid distributed over                                   128 processors
 PW_GRID| Real space group dimensions                                     8   16
 PW_GRID| the grid is blocked:                                                NO
 PW_GRID| Cutoff [a.u.]                                                     66.7
 PW_GRID| spherical cutoff:                                                   NO
 PW_GRID|   Bounds   1            -60      59                Points:         120
 PW_GRID|   Bounds   2            -60      59                Points:         120
 PW_GRID|   Bounds   3           -252     251                Points:         504
 PW_GRID| Volume element (a.u.^3)  0.1638E-01     Volume (a.u.^3)    118871.7965
 PW_GRID| Grid span                                                    FULLSPACE
 PW_GRID|   Distribution                         Average         Max         Min
 PW_GRID|   G-Vectors                            56700.0       57960       55320
 PW_GRID|   G-Rays                                 472.5         483         461
 PW_GRID|   Real Space Points                    56700.0       60480       52920

 PW_GRID| Information for grid number                                          3
 PW_GRID| Number of the reference grid                                         1
 PW_GRID| Grid distributed over                                   128 processors
 PW_GRID| Real space group dimensions                                     8   16
 PW_GRID| the grid is blocked:                                                NO
[...]
 -------------------------------------------------------------------------------
 COUNTER                                    TOTAL       BLAS       SMM       ACC
 flops     5 x    32 x     5           2238790400       0.0%    100.0%      0.0%
 flops    13 x    32 x     5           2910182080       0.0%    100.0%      0.0%
 flops     5 x    32 x    13           2910182080       0.0%    100.0%      0.0%
 flops    13 x    32 x    13           3677623872       0.0%    100.0%      0.0%
 flops    13 x    32 x    20           7992508160       0.0%    100.0%      0.0%
 flops    20 x    32 x    13           7992508160       0.0%    100.0%      0.0%
 flops     5 x    32 x    20           8143321600       0.0%    100.0%      0.0%
 flops    20 x    32 x     5           8143321600       0.0%    100.0%      0.0%
 flops     5 x     5 x    96          11744040000       0.0%    100.0%      0.0%
 flops    13 x     5 x    96          15166195200       0.0%    100.0%      0.0%
 flops     5 x    13 x    96          15168753600       0.0%    100.0%      0.0%
 flops    13 x    13 x    96          19423372800       0.0%    100.0%      0.0%
 flops     5 x     5 x   128          34449184000       0.0%    100.0%      0.0%
 flops    13 x    20 x    96          41589350400       0.0%    100.0%      0.0%
 flops    20 x    13 x    96          41722387200       0.0%    100.0%      0.0%
 flops     5 x    20 x    96          42410400000       0.0%    100.0%      0.0%
 flops    20 x     5 x    96          42473376000       0.0%    100.0%      0.0%
 flops    13 x     5 x   128          44487505920       0.0%    100.0%      0.0%
 flops     5 x    13 x   128          44495010560       0.0%    100.0%      0.0%
 flops    13 x    13 x   128          56975226880       0.0%    100.0%      0.0%
 flops    20 x    32 x    20          70469222400       0.0%    100.0%      0.0%
 flops    13 x    20 x   128         121995427840       0.0%    100.0%      0.0%
 flops    20 x    13 x   128         122385669120       0.0%    100.0%      0.0%
 flops     5 x    20 x   128         124403840000       0.0%    100.0%      0.0%
 flops    20 x     5 x   128         124588569600       0.0%    100.0%      0.0%
 flops    20 x    20 x    96         368976384000       0.0%    100.0%      0.0%
 flops    20 x    20 x   128        1082330726400       0.0%    100.0%      0.0%
 flops inhomo. stacks                           0       0.0%      0.0%      0.0%
 flops total                         2.469263E+12       0.0%    100.0%      0.0%
 flops max/rank                     22.305177E+09       0.0%    100.0%      0.0%
 matmuls inhomo. stacks                         0       0.0%      0.0%      0.0%
 matmuls total                           61781397       0.0%    100.0%      0.0%
 number of processed stacks                773350       0.0%    100.0%      0.0%
 average stack size                                     0.0      79.9       0.0
 marketing flops                     4.546861E+12
 -------------------------------------------------------------------------------
 # multiplications                             42
 max memory usage/rank               1.604567E+09
 # max total images/rank                        2
 # max 3D layers                                1
 # MPI messages exchanged                  155904
 MPI messages size (bytes):
  total size                        87.264657E+09
  min size                         271.872000E+03
  max size                           2.008448E+06
  average size                     559.733250E+03
 MPI breakdown and total messages size (bytes):
             size <=      128                   0                        0
       128 < size <=     8192                   0                        0
      8192 < size <=    32768                   0                        0
     32768 < size <=   131072                   0                        0
    131072 < size <=  4194304              155904              87264665016
   4194304 < size <= 16777216                   0                        0
  16777216 < size                               0                        0
 -------------------------------------------------------------------------------

 *** WARNING in dbcsr_mm.F:290 :: Using a non-square number of MPI ranks ***
 *** might lead to poor performance. Used ranks: 128 Suggested: 121 256  ***

 -------------------------------------------------------------------------------
 -                                                                             -
 -                      DBCSR MESSAGE PASSING PERFORMANCE                      -
 -                                                                             -
 -------------------------------------------------------------------------------
 ROUTINE             CALLS      AVE VOLUME [Bytes]
 MP_Bcast               28                     12.
 MP_Allreduce          361                     11.
 MP_Alltoall          1169                 531093.
 MP_ISend             2688                 265686.
 MP_IRecv             2688                 259708.
 -------------------------------------------------------------------------------

 -------------------------------------------------------------------------------
 -                                                                             -
 -                                DBM STATISTICS                               -
 -                                                                             -
 -------------------------------------------------------------------------------
    M  x    N  x    K                                          COUNT     PERCENT
 -------------------------------------------------------------------------------

 -------------------------------------------------------------------------------
 -                                                                             -
 -                                GRID STATISTICS                              -
 -                                                                             -
 -------------------------------------------------------------------------------
 LP    KERNEL             BACKEND                              COUNT     PERCENT
 4     collocate general  REF                               15925120      25.27%
 4     integrate general  REF                               15761294      25.01%
 3     collocate general  REF                                9372080      14.87%
 3     integrate general  REF                                9290321      14.74%
 2     collocate general  REF                                6101720       9.68%
 2     integrate general  REF                                5949177       9.44%
 5     integrate general  REF                                 398128       0.63%
 0     collocate general  REF                                 114432       0.18%
 0     integrate general  REF                                  57216       0.09%
 1     integrate general  REF                                  57216       0.09%
 -------------------------------------------------------------------------------

 MEMORY| Estimated peak process memory [MiB]                                1788

 -------------------------------------------------------------------------------
 ----                             MULTIGRID INFO                            ----
 -------------------------------------------------------------------------------
 count for grid        1:        1075448          cutoff [a.u.]          200.00
 count for grid        2:        1070611          cutoff [a.u.]           66.67
 count for grid        3:         679096          cutoff [a.u.]           22.22
 count for grid        4:         505156          cutoff [a.u.]            7.41
 total gridlevel count  :        3330311

 -------------------------------------------------------------------------------
 -                                                                             -
 -                         MESSAGE PASSING PERFORMANCE                         -
 -                                                                             -
 -------------------------------------------------------------------------------

 ROUTINE             CALLS      AVE VOLUME [Bytes]
 MP_Group                4
 MP_Bcast             2120                 310724.
 MP_Allreduce         3357                  28473.
 MP_Sync                86
 MP_Alltoall          2422               17036453.
 MP_SendRecv           508                   5991.
 MP_ISendRecv        20320                  61740.
 MP_Wait             36004
 MP_comm_split          41
 MP_ISend            14784                 256102.
 MP_IRecv            14784                 256102.
 MP_Recv               116                1559296.
 MP_Write_All            3                1797408.
 -------------------------------------------------------------------------------


 -------------------------------------------------------------------------------
 -                                                                             -
 -                           R E F E R E N C E S                               -
 -                                                                             -
 -------------------------------------------------------------------------------
 
 CP2K version 2022.1, the CP2K developers group (2022).
 CP2K is freely available from https://www.cp2k.org/ .

 Kuehne,Thomas D.; Iannuzzi,Marcella; Del Ben,Mauro;
 Rybkin,Vladimir V.; Seewald,Patrick; Stein,Frederick; Laino,Teodoro;
 Khaliullin,Rustam Z.; Schuett,Ole; Schiffmann,Florian; Golze,Dorothea;
 Wilhelm,Jan; Chulkov,Sergey; Bani-Hashemian,Mohammad Hossein;
 Weber,Valery; Borstnik,Urban; Taillefumier,Mathieu;
 Jakobovits,Alice Shoshana; Lazzaro,Alfio; Pabst,Hans; Mueller,Tiziano;
 Schade,Robert; Guidon,Manuel; Andermatt,Samuel; Holmberg,Nico;
 Schenter,Gregory K.; Hehn,Anna; Bussy,Augustin; Belleflamme,Fabian;
 Tabacchi,Gloria; Gloess,Andreas; Lass,Michael; Bethune,Iain;
 Mundy,Christopher J.; Plessl,Christian; Watkins,Matt;
 VandeVondele,Joost; Krack,Matthias; Hutter,Juerg. 
 The Journal of Chemical Physics, 152 (19), (2020). 
 CP2K: An electronic structure and molecular dynamics software package -
 Quickstep: Efficient and accurate electronic structure calculations.
 https://doi.org/10.1063/5.0007045

 Goerigk, Lars; Hansen, Andreas; Bauer, Christoph; Ehrlich, Stephan;
 Najibi, Asim; Grimme, Stefan. , 19 (48), (2017). 
 A look at the density functional theory zoo with the advanced GMTKN55 database
 for general main group thermochemistry, kinetics and noncovalent interactions.
 https://doi.org/10.1039/C7CP04913G

 Bani-Hashemian, MH; Bruck, S; Luisier, M; VandeVondele, J. 
 JOURNAL OF CHEMICAL PHYSICS, 144 (4), 044113 (2016). 
 A generalized Poisson solver for first-principles device simulations.
 https://doi.org/10.1063/1.4940796

 Schuett, Ole; Messmer, Peter; Hutter, Juerg; VandeVondele, Joost. 
 Electronic Structure Calculations on Graphics Processing Units, John
 Wiley & Sons, Ltd, 173-190 (2016). 
 GPU-Accelerated Sparse Matrix-Matrix Multiplication for
 Linear Scaling Density Functional Theory.
 https://doi.org/10.1002/9781118670712.ch8

 Heinecke, A; Henry, G; Hutchinson, M; Pabst, H. 
 Proceedings of Intl. Supercomputing Conference, 981-991 (2016). 
 LIBXSMM: Accelerating Small Matrix Multiplications
 by Runtime Code Generation.
 https://doi.org/10.1109/SC.2016.83

 Borstnik, U; VandeVondele, J; Weber, V; Hutter, J. 
 PARALLEL COMPUTING, 40 (5-6), 47-58 (2014). 
 Sparse matrix multiplication: The distributed block-compressed sparse
 row library.
 https://doi.org/10.1016/j.parco.2014.03.012

 Hutter, J; Iannuzzi, M; Schiffmann, F; VandeVondele, J. 
 WIREs Comput Mol Sci., 4 (1), 15-25 (2014). 
 CP2K: atomistic simulations of condensed matter systems.
 https://doi.org/10.1002/wcms.1159

 Marek, A; Blum, V; Johanni, R; Havu, V; Lang, B; Auckenthaler, T;
 Heinecke, A; Bungartz, H; Lederer, H. 
 Journal of Physics: Condensed Matter, 26 (21), (2014). 
 The ELPA library: scalable parallel eigenvalue solutions for
 electronic structure
 theory and computational science.
 https://doi.org/10.1088/0953-8984/26/21/213201

 Grimme, S; Ehrlich, S; Goerigk, L. 
 JOURNAL OF COMPUTATIONAL CHEMISTRY, 32, 1456 (2011). 
 Effect of the damping function in dispersion corrected density functional theory.
 https://doi.org/10.1002/jcc.21759

 Grimme, S; Antony, J; Ehrlich, S; Krieg, H. 
 JOURNAL OF CHEMICAL PHYSICS, 132 (15), 154104 (2010). 
 A consistent and accurate ab initio parametrization of density
 functional dispersion correction (DFT-D) for the 94 elements H-Pu.
 https://doi.org/10.1063/1.3382344

 VandeVondele, J; Hutter, J. 
 JOURNAL OF CHEMICAL PHYSICS, 127 (11), 114105 (2007). 
 Gaussian basis sets for accurate calculations on molecular systems in
 gas and condensed phases.
 https://doi.org/10.1063/1.2770708

 Krack, M. 
 THEORETICAL CHEMISTRY ACCOUNTS, 114 (1-3), 145-152 (2005). 
 Pseudopotentials for H to Kr optimized for gradient-corrected
 exchange-correlation functionals.
 https://doi.org/10.1007/s00214-005-0655-y

 VandeVondele, J; Krack, M; Mohamed, F; Parrinello, M; Chassaing, T;
 Hutter, J. COMPUTER PHYSICS COMMUNICATIONS, 167 (2), 103-128 (2005). 
 QUICKSTEP: Fast and accurate density functional calculations using a
 mixed Gaussian and plane waves approach.
 https://doi.org/10.1016/j.cpc.2004.12.014

 Frigo, M; Johnson, SG. 
 PROCEEDINGS OF THE IEEE, 93 (2), 216-231 (2005). 
 The design and implementation of FFTW3.
 https://doi.org/10.1109/JPROC.2004.840301

 Hartwigsen, C; Goedecker, S; Hutter, J. 
 PHYSICAL REVIEW B, 58 (7), 3641-3662 (1998). 
 Relativistic separable dual-space Gaussian pseudopotentials from H to Rn.
 https://doi.org/10.1103/PhysRevB.58.3641

 Lippert, G; Hutter, J; Parrinello, M. 
 MOLECULAR PHYSICS, 92 (3), 477-487 (1997). 
 A hybrid Gaussian and plane wave density functional scheme.
 https://doi.org/10.1080/002689797170220

 Perdew, JP; Burke, K; Ernzerhof, M. 
 PHYSICAL REVIEW LETTERS, 77 (18), 3865-3868 (1996). 
 Generalized gradient approximation made simple.
 https://doi.org/10.1103/PhysRevLett.77.3865

 Goedecker, S; Teter, M; Hutter, J. 
 PHYSICAL REVIEW B, 54 (3), 1703-1710 (1996). 
 Separable dual-space Gaussian pseudopotentials.
 https://doi.org/10.1103/PhysRevB.54.1703


 -------------------------------------------------------------------------------
 -                                                                             -
 -                                T I M I N G                                  -
 -                                                                             -
 -------------------------------------------------------------------------------
 SUBROUTINE                       CALLS  ASD         SELF TIME        TOTAL TIME
                                MAXIMUM       AVERAGE  MAXIMUM  AVERAGE  MAXIMUM
 CP2K                                 1  1.0    0.019    0.033  273.063  273.064
 qs_forces                            1  2.0    0.002    0.002  272.685  272.686
 qs_energies                          1  3.0    0.000    0.000  266.620  266.624
 scf_env_do_scf                       1  4.0    0.000    0.000  255.105  255.243
 scf_env_do_scf_inner_loop           39  5.0    0.002    0.006  255.102  255.240
 rebuild_ks_matrix                   40  6.9    0.000    0.000  143.110  143.141
 qs_ks_build_kohn_sham_matrix        40  7.9    0.006    0.007  143.110  143.141
 qs_ks_update_qs_env                 39  6.0    0.000    0.000  139.085  139.116
 pw_transfer                       2084 12.2    0.152    0.192   90.028   91.879
 fft_wrap_pw1pw2                   2084 13.2    0.020    0.025   89.876   91.713
 fft_wrap_pw1pw2_200               1844 14.4    6.138    7.225   88.725   90.528
 pw_poisson_solve                    40  8.9    0.004    0.011   77.434   77.470
 fft3d_ps                          2084 15.2   26.142   29.062   72.083   74.737
 implicit_poisson_solver_mixed_      40  9.9    1.645    2.012   73.268   73.343
 qs_scf_new_mos                      39  6.0    0.002    0.005   66.056   66.167
 eigensolver                         39  7.0    0.003    0.004   62.298   62.486
 derive_fft                         240 12.1    0.015    0.018   51.156   51.288
 mp_alltoall_z22v                  2084 17.2   38.383   47.259   38.383   47.259
 qs_rho_update_rho_low               40  6.0    0.000    0.000   44.278   44.286
 calculate_rho_elec                  40  7.0    0.077    0.096   44.277   44.286
 cp_fm_diag_elpa                     41  8.0    0.000    0.001   44.078   44.198
 apply_P_operator                   200 11.1    1.065    1.175   43.767   43.904
 sum_up_and_integrate                40  8.9    0.216    0.263   43.781   43.819
 cp_fm_redistribute_end              41  9.0    8.570   43.691    8.619   43.701
 integrate_v_rspace                  40  9.9    0.001    0.002   43.565   43.669
 cp_fm_diag_elpa_base                41  9.0   34.537   42.669   34.877   43.102
 grid_collocate_task_list            40  8.0   26.038   34.714   26.038   34.714
 grid_integrate_task_list            40 10.9   24.008   31.663   24.008   31.663
 x_to_yz                           1201 16.4    5.086    6.426   29.246   30.467
 rs_pw_transfer                     324 10.4    0.004    0.005   22.357   28.531
 density_rs2pw                       40  8.0    0.003    0.003   17.324   23.522
 yz_to_x                            643 16.4    1.759    2.066   15.828   21.591
 qs_vxc_create                       40  8.9    0.001    0.014   19.583   19.824
 xc_vxc_pw_create                    40  9.9    0.341    0.419   19.581   19.823
 cp_fm_triangular_multiply          117  8.0   19.501   19.711   19.501   19.711
 mp_waitany                       14784 12.4   11.558   18.151   11.558   18.151
 rs_pw_transfer_RS2PW_200            42  9.9    2.546    2.955   11.358   17.520
 mp_alltoall_d11v                   582 10.3    9.230   15.335    9.230   15.335
 xc_pw_derive                       240 11.9    0.004    0.004   13.857   15.308
 rs_gather_matrices                  40 10.9    0.045    0.058    8.090   14.093
 apply_poisson_operator_fft          40 10.9    0.001    0.001   12.919   13.144
 apply_inv_laplace_operator_fft     122 11.6    0.307    0.362   11.747   12.150
 potential_pw2rs                     40 10.9    0.012    0.018   11.455   11.546
 xc_pw_divergence                    40 10.9    0.002    0.002    9.374   10.487
 xc_rho_set_and_dset_create          40 10.9    0.198    0.242    9.515   10.074
 ps_implicit_compute_error_fft       80 10.9    0.502    0.607    8.756    9.372
 ps_implicit_compute_veps            40 10.9    0.232    0.301    8.689    8.866
 pw_scatter_p                      1321 15.4    7.412    8.709    7.412    8.709
 scf_post_calculation_gpw             1  4.0    0.000    0.001    8.155    8.160
 write_available_results              1  5.0    0.000    0.000    8.154    8.159
 rs_pw_transfer_PW2RS_200            42 12.7    3.175    3.308    6.593    6.764
 gspace_mixing                       38  6.0    0.072    0.089    6.549    6.553
 pw_derive                          960 13.1    6.083    6.504    6.083    6.504
 write_mo_free_results                1  6.0    0.311    0.450    5.903    5.915
 -------------------------------------------------------------------------------

 The number of warnings for this run is : 1
 
 -------------------------------------------------------------------------------
  **** **** ******  **  PROGRAM ENDED AT                 2024-07-18 00:56:31.207
 ***** ** ***  *** **   PROGRAM RAN ON                                     cu042
 **    ****   ******    PROGRAM RAN BY                                     jxzhu
 ***** **    ** ** **   PROGRAM PROCESS ID                                 12311
  **** **  *******  **  PROGRAM STOPPED IN /public/home/jxzhu/tmp_calc/01bb3a4ec
                                           e87bb1352835195bbd778fbd67b8318/calc/
                                           002000.000/search_lo.000000
