 DBCSR| CPU Multiplication driver                                           XSMM
 DBCSR| Multrec recursion limit                                              512
 DBCSR| Multiplication stack size                                           1000
 DBCSR| Maximum elements for images                                    UNLIMITED
 DBCSR| Multiplicative factor virtual images                                   1
 DBCSR| Use multiplication densification                                       T
 DBCSR| Multiplication size stacks                                             3
 DBCSR| Use memory pool for CPU allocation                                     F
 DBCSR| Number of 3D layers                                               SINGLE
 DBCSR| Use MPI memory allocation                                              F
 DBCSR| Use RMA algorithm                                                      F
 DBCSR| Use Communication thread                                               T
 DBCSR| Communication thread load                                             87
 DBCSR| MPI: My node id                                                        0
 DBCSR| MPI: Number of nodes                                                 128
 DBCSR| OMP: Current number of threads                                         1
 DBCSR| OMP: Max number of threads                                             1
 DBCSR| Split modifier for TAS multiplication algorithm                  1.0E+00


  **** **** ******  **  PROGRAM STARTED AT               2023-12-03 06:32:14.221
 ***** ** ***  *** **   PROGRAM STARTED ON                                 cu001
 **    ****   ******    PROGRAM STARTED BY                                 jxzhu
 ***** **    ** ** **   PROGRAM PROCESS ID                                 43449
  **** **  *******  **  PROGRAM STARTED IN /public/home/jxzhu/tmp_calc/b37ebc9e3
                                           c135a7b92f6028da4045b4d6ba2980a/calc/
                                           002900.000/search_lo.000000

 CP2K| version string:                                       CP2K version 2022.1
 CP2K| source code revision number:                                  git:2caeb6f
 CP2K| cp2kflags: omp libint fftw3 libxc elpa parallel mpi3 scalapack cosma xsmm
 CP2K|             plumed2 spglib mkl sirius libvori libbqb
 CP2K| is freely available from                            https://www.cp2k.org/
 CP2K| Program compiled at                           Mon Jul 3 17:37:06 CST 2023
 CP2K| Program compiled on                                                 mu003
 CP2K| Program compiled for                                                local
 CP2K| Data directory path                             /public/home/jxzhu/basis/
 CP2K| Input file name                                                 input.inp
 
 GLOBAL| Force Environment number                                              1
 GLOBAL| Basis set file name                                        BASIS_MOLOPT
 GLOBAL| Potential file name                                      GTH_POTENTIALS
 GLOBAL| MM Potential file name                                     MM_POTENTIAL
 GLOBAL| Coordinate file name                                          coord.xyz
 GLOBAL| Method name                                                        CP2K
 GLOBAL| Project name                                                       cp2k
 GLOBAL| Run type                                                   ENERGY_FORCE
 GLOBAL| FFT library                                                       FFTW3
 GLOBAL| Diagonalization library                                            ELPA
 GLOBAL| Minimum number of eigenvectors for ELPA usage                        16
 GLOBAL| Orthonormality check for eigenvectors                          DISABLED
 GLOBAL| Matrix multiplication library                                     COSMA
 GLOBAL| All-to-all communication in single precision                          F
 GLOBAL| FFTs using library dependent lengths                                  T
 GLOBAL| Grid backend                                                       AUTO
 GLOBAL| Global print level                                               MEDIUM
 GLOBAL| MPI I/O enabled                                                       T
 GLOBAL| Total number of message passing processes                           128
 GLOBAL| Number of threads for this process                                    1
 GLOBAL| This output is from process                                           0
 GLOBAL| Stack size for threads created by OpenMP (OMP_STACKSIZE)        default
 GLOBAL| CPU model name                 Intel(R) Xeon(R) Gold 6338 CPU @ 2.00GHz
 GLOBAL| CPUID                                                              1003

 MEMORY| system memory details [Kb]
 MEMORY|                        rank 0           min           max       average
 MEMORY| MemTotal            263619172     263619172     263619172     263619172
 MEMORY| MemFree             218695372     215654720     218697852     217175293
 MEMORY| Buffers                    20            20            36            28
 MEMORY| Cached                1439588        747496       1439588       1093542
 MEMORY| Slab                  1407748       1407748       1427524       1417636
 MEMORY| SReclaimable           244056        232028        244056        238042
 MEMORY| MemLikelyFree       220379036     216634280     220381516     218506905


 *** Fundamental physical constants (SI units) ***

 *** Literature: B. J. Mohr and B. N. Taylor,
 ***             CODATA recommended values of the fundamental physical
 ***             constants: 2006, Web Version 5.1
 ***             http://physics.nist.gov/constants

 Speed of light in vacuum [m/s]                             2.99792458000000E+08
 Magnetic constant or permeability of vacuum [N/A**2]       1.25663706143592E-06
 Electric constant or permittivity of vacuum [F/m]          8.85418781762039E-12
 Planck constant (h) [J*s]                                  6.62606896000000E-34
 Planck constant (h-bar) [J*s]                              1.05457162825177E-34
 Elementary charge [C]                                      1.60217648700000E-19
 Electron mass [kg]                                         9.10938215000000E-31
 Electron g factor [ ]                                     -2.00231930436220E+00
 Proton mass [kg]                                           1.67262163700000E-27
 Fine-structure constant                                    7.29735253760000E-03
 Rydberg constant [1/m]                                     1.09737315685270E+07
 Avogadro constant [1/mol]                                  6.02214179000000E+23
 Boltzmann constant [J/K]                                   1.38065040000000E-23
 Atomic mass unit [kg]                                      1.66053878200000E-27
 Bohr radius [m]                                            5.29177208590000E-11

 *** Conversion factors ***

 [u] -> [a.u.]                                              1.82288848426455E+03
 [Angstrom] -> [Bohr] = [a.u.]                              1.88972613288564E+00
 [a.u.] = [Bohr] -> [Angstrom]                              5.29177208590000E-01
 [a.u.] -> [s]                                              2.41888432650478E-17
 [a.u.] -> [fs]                                             2.41888432650478E-02
 [a.u.] -> [J]                                              4.35974393937059E-18
 [a.u.] -> [N]                                              8.23872205491840E-08
 [a.u.] -> [K]                                              3.15774647902944E+05
 [a.u.] -> [kJ/mol]                                         2.62549961709828E+03
 [a.u.] -> [kcal/mol]                                       6.27509468713739E+02
 [a.u.] -> [Pa]                                             2.94210107994716E+13
 [a.u.] -> [bar]                                            2.94210107994716E+08
 [a.u.] -> [atm]                                            2.90362800883016E+08
 [a.u.] -> [eV]                                             2.72113838565563E+01
 [a.u.] -> [Hz]                                             6.57968392072181E+15
 [a.u.] -> [1/cm] (wave numbers)                            2.19474631370540E+05
 [a.u./Bohr**2] -> [1/cm]                                   5.14048714338585E+03
 

 CELL_TOP| Volume [angstrom^3]:                                     17614.982639
 CELL_TOP| Vector a [angstrom    16.869     0.000     0.000   |a| =    16.869000
 CELL_TOP| Vector b [angstrom    -8.434    14.609     0.000   |b| =    16.869015
 CELL_TOP| Vector c [angstrom     0.000     0.000    71.478   |c| =    71.478000
 CELL_TOP| Angle (b,c), alpha [degree]:                                90.000000
 CELL_TOP| Angle (a,c), beta  [degree]:                                90.000000
 CELL_TOP| Angle (a,b), gamma [degree]:                               119.999970
 CELL_TOP| Numerically orthorhombic:                                          NO
 
 GENERATE|  Preliminary Number of Bonds generated:                             0
 GENERATE|  Achieved consistency in connectivity generation.

 CELL| Volume [angstrom^3]:                                         17614.982639
 CELL| Vector a [angstrom]:      16.869     0.000     0.000   |a| =    16.869000
 CELL| Vector b [angstrom]:      -8.434    14.609     0.000   |b| =    16.869015
 CELL| Vector c [angstrom]:       0.000     0.000    71.478   |c| =    71.478000
 CELL| Angle (b,c), alpha [degree]:                                    90.000000
 CELL| Angle (a,c), beta  [degree]:                                    90.000000
 CELL| Angle (a,b), gamma [degree]:                                   119.999970
 CELL| Numerically orthorhombic:                                              NO

 CELL_REF| Volume [angstrom^3]:                                     17614.982639
 CELL_REF| Vector a [angstrom    16.869     0.000     0.000   |a| =    16.869000
 CELL_REF| Vector b [angstrom    -8.434    14.609     0.000   |b| =    16.869015
 CELL_REF| Vector c [angstrom     0.000     0.000    71.478   |c| =    71.478000
 CELL_REF| Angle (b,c), alpha [degree]:                                90.000000
 CELL_REF| Angle (a,c), beta  [degree]:                                90.000000
 CELL_REF| Angle (a,b), gamma [degree]:                               119.999970
 CELL_REF| Numerically orthorhombic:                                          NO

 *******************************************************************************
 *******************************************************************************
 **                                                                           **
 **     #####                         ##              ##                      **
 **    ##   ##            ##          ##              ##                      **
 **   ##     ##                       ##            ######                    **
 **   ##     ##  ##   ##  ##   #####  ##  ##   ####   ##    #####    #####    **
 **   ##     ##  ##   ##  ##  ##      ## ##   ##      ##   ##   ##  ##   ##   **
 **   ##  ## ##  ##   ##  ##  ##      ####     ###    ##   ######   ######    **
 **    ##  ###   ##   ##  ##  ##      ## ##      ##   ##   ##       ##        **
 **     #######   #####   ##   #####  ##  ##  ####    ##    #####   ##        **
 **           ##                                                    ##        **
 **                                                                           **
 **                                                ... make the atoms dance   **
 **                                                                           **
 **            Copyright (C) by CP2K developers group (2000-2022)             **
 **                      J. Chem. Phys. 152, 194103 (2020)                    **
 **                                                                           **
 *******************************************************************************

 DFT| Spin restricted Kohn-Sham (RKS) calculation                            RKS
 DFT| Multiplicity                                                             1
 DFT| Number of spin states                                                    1
 DFT| Charge                                                                   0
 DFT| Self-interaction correction (SIC)                                       NO
 DFT| Cutoffs: density                                              1.000000E-10
 DFT|          gradient                                             1.000000E-10
 DFT|          tau                                                  1.000000E-10
 DFT|          cutoff_smoothing_range                               0.000000E+00
 DFT| XC density smoothing                                                  NONE
 DFT| XC derivatives                                                          PW

 FUNCTIONAL| PBE:
 FUNCTIONAL| J.P.Perdew, K.Burke, M.Ernzerhof, Phys. Rev. Letter, vol. 77, n 18,
 FUNCTIONAL|  pp. 3865-3868, (1996){spin unpolarized}                           

 vdW POTENTIAL|                                                   Pair Potential
 vdW POTENTIAL|          DFT-D3 (Version 3.1)
 vdW POTENTIAL|          Potential Form: S. Grimme et al, JCP 132: 154104 (2010)
 vdW POTENTIAL|          Zero Damping
 vdW POTENTIAL|          Cutoff Radius [Bohr]:                             20.00
 vdW POTENTIAL|          s6 Scaling Factor:                               1.0000
 vdW POTENTIAL|          sr6 Scaling Factor:                              1.2170
 vdW POTENTIAL|          s8 Scaling Factor:                               0.7220
 vdW POTENTIAL|          Cutoff for CN calculation:                   0.1000E-05

 QS| Method:                                                                 GPW
 QS| Density plane wave grid type                        NON-SPHERICAL FULLSPACE
 QS| Number of grid levels:                                                    4
 QS| Density cutoff [a.u.]:                                                200.0
 QS| Multi grid cutoff [a.u.]: 1) grid level                               200.0
 QS|                           2) grid level                                66.7
 QS|                           3) grid level                                22.2
 QS|                           4) grid level                                 7.4
 QS| Grid level progression factor:                                          3.0
 QS| Relative density cutoff [a.u.]:                                        20.0
 QS| Interaction thresholds: eps_pgf_orb:                                3.2E-07
 QS|                         eps_filter_matrix:                          0.0E+00
 QS|                         eps_core_charge:                            1.0E-15
 QS|                         eps_rho_gspace:                             1.0E-13
 QS|                         eps_rho_rspace:                             1.0E-13
 QS|                         eps_gvg_rspace:                             3.2E-07
 QS|                         eps_ppl:                                    1.0E-02
 QS|                         eps_ppnl:                                   3.2E-09


 ATOMIC KIND INFORMATION

  1. Atomic kind: O                                     Number of atoms:     101

     Orbital Basis Set                                        DZVP-MOLOPT-SR-GTH

       Number of orbital shell sets:                                           1
       Number of orbital shells:                                               5
       Number of primitive Cartesian functions:                                5
       Number of Cartesian basis functions:                                   14
       Number of spherical basis functions:                                   13
       Norm type:                                                              2

       Normalised Cartesian orbitals:

                        Set   Shell   Orbital            Exponent    Coefficient

                          1       1    2s               10.389228       0.396646
                                                         3.849621       0.208811
                                                         1.388401      -0.301641
                                                         0.496955      -0.274061
                                                         0.162492      -0.033677

                          1       2    3s               10.389228       0.303673
                                                         3.849621       0.240943
                                                         1.388401      -0.313066
                                                         0.496955      -0.043055
                                                         0.162492       0.213991

                          1       3    3px              10.389228      -1.530415
                                                         3.849621      -1.371928
                                                         1.388401      -0.761951
                                                         0.496955      -0.253695
                                                         0.162492      -0.035541
                          1       3    3py              10.389228      -1.530415
                                                         3.849621      -1.371928
                                                         1.388401      -0.761951
                                                         0.496955      -0.253695
                                                         0.162492      -0.035541
                          1       3    3pz              10.389228      -1.530415
                                                         3.849621      -1.371928
                                                         1.388401      -0.761951
                                                         0.496955      -0.253695
                                                         0.162492      -0.035541

                          1       4    4px              10.389228      -0.565392
                                                         3.849621      -0.038231
                                                         1.388401      -0.382373
                                                         0.496955       0.179070
                                                         0.162492       0.122714
                          1       4    4py              10.389228      -0.565392
                                                         3.849621      -0.038231
                                                         1.388401      -0.382373
                                                         0.496955       0.179070
                                                         0.162492       0.122714
                          1       4    4pz              10.389228      -0.565392
                                                         3.849621      -0.038231
                                                         1.388401      -0.382373
                                                         0.496955       0.179070
                                                         0.162492       0.122714

                          1       5    4dx2             10.389228       1.867377
                                                         3.849621       0.670994
                                                         1.388401       1.353441
                                                         0.496955       0.273538
                                                         0.162492       0.006620
                          1       5    4dxy             10.389228       3.234392
                                                         3.849621       1.162195
                                                         1.388401       2.344229
                                                         0.496955       0.473781
                                                         0.162492       0.011466
                          1       5    4dxz             10.389228       3.234392
                                                         3.849621       1.162195
                                                         1.388401       2.344229
                                                         0.496955       0.473781
                                                         0.162492       0.011466
                          1       5    4dy2             10.389228       1.867377
                                                         3.849621       0.670994
                                                         1.388401       1.353441
                                                         0.496955       0.273538
                                                         0.162492       0.006620
                          1       5    4dyz             10.389228       3.234392
                                                         3.849621       1.162195
                                                         1.388401       2.344229
                                                         0.496955       0.473781
                                                         0.162492       0.011466
                          1       5    4dz2             10.389228       1.867377
                                                         3.849621       0.670994
                                                         1.388401       1.353441
                                                         0.496955       0.273538
                                                         0.162492       0.006620

       Atomic covalent radius [Angstrom]:                                  0.730

       Atomic van der Waals radius [Angstrom]:                             1.520

     GTH Potential information for                                    GTH-PBE-q6

       Description:                       Goedecker-Teter-Hutter pseudopotential
                                           Goedecker et al., PRB 54, 1703 (1996)
                                          Hartwigsen et al., PRB 58, 3641 (1998)
                                                      Krack, TCA 114, 145 (2005)

       Gaussian exponent of the core charge distribution:               8.360253
       Electronic configuration (s p d ...):                               2   4

       Parameters of the local part of the GTH pseudopotential:

                          rloc        C1          C2          C3          C4
                        0.244554  -16.667215    2.487311

       Parameters of the non-local part of the GTH pseudopotential:

                   l      r(l)      h(i,j,l)

                   0    0.220956   18.337458
                   1    0.211332

  2. Atomic kind: H                                     Number of atoms:     202

     Orbital Basis Set                                        DZVP-MOLOPT-SR-GTH

       Number of orbital shell sets:                                           1
       Number of orbital shells:                                               3
       Number of primitive Cartesian functions:                                5
       Number of Cartesian basis functions:                                    5
       Number of spherical basis functions:                                    5
       Norm type:                                                              2

       Normalised Cartesian orbitals:

                        Set   Shell   Orbital            Exponent    Coefficient

                          1       1    2s               10.068468      -0.133023
                                                         2.680223      -0.177618
                                                         0.791502      -0.258419
                                                         0.239116      -0.107525
                                                         0.082193      -0.014019

                          1       2    3s               10.068468       0.344673
                                                         2.680223       1.819821
                                                         0.791502      -0.999069
                                                         0.239116       0.017430
                                                         0.082193       0.082660

                          1       3    3px              10.068468       0.155326
                                                         2.680223       0.367157
                                                         0.791502       0.311480
                                                         0.239116       0.080105
                                                         0.082193       0.033440
                          1       3    3py              10.068468       0.155326
                                                         2.680223       0.367157
                                                         0.791502       0.311480
                                                         0.239116       0.080105
                                                         0.082193       0.033440
                          1       3    3pz              10.068468       0.155326
                                                         2.680223       0.367157
                                                         0.791502       0.311480
                                                         0.239116       0.080105
                                                         0.082193       0.033440

       Atomic covalent radius [Angstrom]:                                  0.320

       Atomic van der Waals radius [Angstrom]:                             1.090

     GTH Potential information for                                    GTH-PBE-q1

       Description:                       Goedecker-Teter-Hutter pseudopotential
                                           Goedecker et al., PRB 54, 1703 (1996)
                                          Hartwigsen et al., PRB 58, 3641 (1998)
                                                      Krack, TCA 114, 145 (2005)

       Gaussian exponent of the core charge distribution:              12.500000
       Electronic configuration (s p d ...):                                   1

       Parameters of the local part of the GTH pseudopotential:

                          rloc        C1          C2          C3          C4
                        0.200000   -4.178900    0.724463

  3. Atomic kind: Pt                                    Number of atoms:     216

     Orbital Basis Set                      DZVP-A5-Q10-323-MOL-T1-DERIVED_SET-1

       Number of orbital shell sets:                                           1
       Number of orbital shells:                                               6
       Number of primitive Cartesian functions:                                5
       Number of Cartesian basis functions:                                   23
       Number of spherical basis functions:                                   20
       Norm type:                                                              2

       Normalised Cartesian orbitals:

                        Set   Shell   Orbital            Exponent    Coefficient

                          1       1    2s                2.521825       0.177473
                                                         1.453920      -0.063399
                                                         0.614053      -0.407089
                                                         0.232656       0.262254
                                                         0.074788       0.047371

                          1       2    3s                2.521825      -0.049056
                                                         1.453920       0.044904
                                                         0.614053      -0.009756
                                                         0.232656      -0.144709
                                                         0.074788       0.144085

                          1       3    3px               2.521825      -0.317572
                                                         1.453920       0.534826
                                                         0.614053      -0.489458
                                                         0.232656       0.245631
                                                         0.074788       0.018221
                          1       3    3py               2.521825      -0.317572
                                                         1.453920       0.534826
                                                         0.614053      -0.489458
                                                         0.232656       0.245631
                                                         0.074788       0.018221
                          1       3    3pz               2.521825      -0.317572
                                                         1.453920       0.534826
                                                         0.614053      -0.489458
                                                         0.232656       0.245631
                                                         0.074788       0.018221

                          1       4    4dx2              2.521825       3.008522
                                                         1.453920      -1.224251
                                                         0.614053       0.225691
                                                         0.232656       0.125144
                                                         0.074788      -0.015348
                          1       4    4dxy              2.521825       5.210912
                                                         1.453920      -2.120465
                                                         0.614053       0.390909
                                                         0.232656       0.216756
                                                         0.074788      -0.026584
                          1       4    4dxz              2.521825       5.210912
                                                         1.453920      -2.120465
                                                         0.614053       0.390909
                                                         0.232656       0.216756
                                                         0.074788      -0.026584
                          1       4    4dy2              2.521825       3.008522
                                                         1.453920      -1.224251
                                                         0.614053       0.225691
                                                         0.232656       0.125144
                                                         0.074788      -0.015348
                          1       4    4dyz              2.521825       5.210912
                                                         1.453920      -2.120465
                                                         0.614053       0.390909
                                                         0.232656       0.216756
                                                         0.074788      -0.026584
                          1       4    4dz2              2.521825       3.008522
                                                         1.453920      -1.224251
                                                         0.614053       0.225691
                                                         0.232656       0.125144
                                                         0.074788      -0.015348

                          1       5    5dx2              2.521825       0.698026
                                                         1.453920      -1.511486
                                                         0.614053      -0.335394
                                                         0.232656      -0.025564
                                                         0.074788      -0.002699
                          1       5    5dxy              2.521825       1.209017
                                                         1.453920      -2.617970
                                                         0.614053      -0.580920
                                                         0.232656      -0.044277
                                                         0.074788      -0.004674
                          1       5    5dxz              2.521825       1.209017
                                                         1.453920      -2.617970
                                                         0.614053      -0.580920
                                                         0.232656      -0.044277
                                                         0.074788      -0.004674
                          1       5    5dy2              2.521825       0.698026
                                                         1.453920      -1.511486
                                                         0.614053      -0.335394
                                                         0.232656      -0.025564
                                                         0.074788      -0.002699
                          1       5    5dyz              2.521825       1.209017
                                                         1.453920      -2.617970
                                                         0.614053      -0.580920
                                                         0.232656      -0.044277
                                                         0.074788      -0.004674
                          1       5    5dz2              2.521825       0.698026
                                                         1.453920      -1.511486
                                                         0.614053      -0.335394
                                                         0.232656      -0.025564
                                                         0.074788      -0.002699

                          1       6    6dx2              2.521825       0.831079
                                                         1.453920      -0.709226
                                                         0.614053      -0.137351
                                                         0.232656       0.068642
                                                         0.074788       0.011745
                          1       6    6dxy              2.521825       1.439472
                                                         1.453920      -1.228415
                                                         0.614053      -0.237899
                                                         0.232656       0.118891
                                                         0.074788       0.020343
                          1       6    6dxz              2.521825       1.439472
                                                         1.453920      -1.228415
                                                         0.614053      -0.237899
                                                         0.232656       0.118891
                                                         0.074788       0.020343
                          1       6    6dy2              2.521825       0.831079
                                                         1.453920      -0.709226
                                                         0.614053      -0.137351
                                                         0.232656       0.068642
                                                         0.074788       0.011745
                          1       6    6dyz              2.521825       1.439472
                                                         1.453920      -1.228415
                                                         0.614053      -0.237899
                                                         0.232656       0.118891
                                                         0.074788       0.020343
                          1       6    6dz2              2.521825       0.831079
                                                         1.453920      -0.709226
                                                         0.614053      -0.137351
                                                         0.232656       0.068642
                                                         0.074788       0.011745

       Atomic covalent radius [Angstrom]:                                  1.300

       Atomic van der Waals radius [Angstrom]:                             1.750

     GTH Potential information for                                   GTH-PBE-q10

       Description:                       Goedecker-Teter-Hutter pseudopotential
                                           Goedecker et al., PRB 54, 1703 (1996)
                                          Hartwigsen et al., PRB 58, 3641 (1998)
                                                      Krack, TCA 114, 145 (2005)

       Gaussian exponent of the core charge distribution:               1.317676
       Electronic configuration (s p d ...):                           1   0   9

       Parameters of the local part of the GTH pseudopotential:

                          rloc        C1          C2          C3          C4
                        0.616000   11.313635

       Parameters of the non-local part of the GTH pseudopotential:

                   l      r(l)      h(i,j,l)

                   0    0.550904    4.733491   -1.784594
                                   -1.784594    2.303901
                   1    0.674138    2.534798   -1.778066
                                   -1.778066    2.103836
                   2    0.457392   -7.264011    2.558665
                                    2.558665   -2.901253


 MOLECULE KIND INFORMATION


 All atoms are their own molecule, skipping detailed information


 TOTAL NUMBERS AND MAXIMUM NUMBERS

  Total number of            - Atomic kinds:                                   3
                             - Atoms:                                        519
                             - Shell sets:                                   519
                             - Shells:                                      2407
                             - Primitive Cartesian functions:               2595
                             - Cartesian basis functions:                   7392
                             - Spherical basis functions:                   6643

  Maximum angular momentum of- Orbital basis functions:                        2
                             - Local part of the GTH pseudopotential:          2
                             - Non-local part of the GTH pseudopotential:      4


 MODULE QUICKSTEP:  ATOMIC COORDINATES IN angstrom

 Atom  Kind  Element       X           Y           Z          Z(eff)       Mass
    1   1 O    8       4.140000   -2.840000   30.107999       6.0000     15.9994
    2   2 H    1       4.400000   -1.970000   30.537999       1.0000      1.0079
    3   2 H    1       3.230000   -2.850000   29.797999       1.0000      1.0079
    4   1 O    8      14.840001   10.600000   32.977999       6.0000     15.9994
    5   2 H    1      14.050001   11.140001   33.037999       1.0000      1.0079
    6   2 H    1      15.150002   10.700001   32.037999       1.0000      1.0079
    7   1 O    8     -11.260000  -24.580002   29.227999       6.0000     15.9994
    8   2 H    1     -11.860001  -25.380001   29.277999       1.0000      1.0079
    9   2 H    1     -11.840000  -23.810001   29.437999       1.0000      1.0079
   10   1 O    8      27.780001    5.530000   33.927999       6.0000     15.9994
   11   2 H    1      27.480001    4.580000   33.717999       1.0000      1.0079
   12   2 H    1      28.050001    5.550000   34.887999       1.0000      1.0079
   13   1 O    8       9.260000   31.810001   35.997999       6.0000     15.9994
   14   2 H    1      10.320001   31.820002   36.067999       1.0000      1.0079
   15   2 H    1       9.080001   30.870001   35.708000       1.0000      1.0079
   16   1 O    8      13.670001   28.260002   30.067999       6.0000     15.9994
   17   2 H    1      13.110001   28.120001   30.857999       1.0000      1.0079
   18   2 H    1      21.560001   13.500000   29.337999       1.0000      1.0079
   19   1 O    8      23.890001   10.420000   35.258000       6.0000     15.9994
   20   2 H    1      23.670002   10.420000   34.267999       1.0000      1.0079
   21   2 H    1      23.160002    9.970000   35.827998       1.0000      1.0079
   22   1 O    8     -10.240001  -47.090000   32.708000       6.0000     15.9994
   23   2 H    1     -10.950001  -46.420002   32.617999       1.0000      1.0079
   24   2 H    1     -10.410000  -47.830002   32.047999       1.0000      1.0079
   25   1 O    8      34.440002   26.890001   32.267999       6.0000     15.9994
   26   2 H    1      34.889999   26.370001   33.027999       1.0000      1.0079
   27   2 H    1      33.450005   26.760002   32.397999       1.0000      1.0079
   28   1 O    8      21.260002    2.470000   30.047999       6.0000     15.9994
   29   2 H    1      21.709999    1.640000   30.107999       1.0000      1.0079
   30   2 H    1      20.260000    2.340000   29.927999       1.0000      1.0079
   31   1 O    8      28.870001  -26.240002   36.247999       6.0000     15.9994
   32   2 H    1      29.520000  -26.310001   35.507999       1.0000      1.0079
   33   2 H    1      46.220001  -26.600000   37.037999       1.0000      1.0079
   34   1 O    8      27.440002  -26.080000   32.897999       6.0000     15.9994
   35   2 H    1      26.580002  -26.570000   32.697999       1.0000      1.0079
   36   2 H    1      28.120001  -26.270000   32.237999       1.0000      1.0079
   37   1 O    8      12.240001   -5.440001   30.077998       6.0000     15.9994
   38   2 H    1      -4.770000   -5.470000   29.047999       1.0000      1.0079
   39   2 H    1      12.440001   -6.370000   30.197999       1.0000      1.0079
   40   1 O    8      -4.500000   -3.150000   35.277999       6.0000     15.9994
   41   2 H    1      -5.420001   -2.850000   35.157999       1.0000      1.0079
   42   2 H    1      -4.050000   -2.620000   34.617999       1.0000      1.0079
   43   1 O    8      15.650001   55.740005   29.217999       6.0000     15.9994
   44   2 H    1      14.920001   56.340004   29.437999       1.0000      1.0079
   45   2 H    1      15.310000   54.820004   29.527999       1.0000      1.0079
   46   1 O    8     -20.130001   -8.750001   32.548000       6.0000     15.9994
   47   2 H    1     -20.270002   -8.440001   33.468000       1.0000      1.0079
   48   2 H    1     -19.090000   -8.800000   32.467999       1.0000      1.0079
   49   1 O    8       8.850000    2.360000   38.617999       6.0000     15.9994
   50   2 H    1       9.810000    2.100000   38.997999       1.0000      1.0079
   51   2 H    1       8.960000    2.460000   37.647998       1.0000      1.0079
   52   1 O    8      32.830002   22.240002   30.077998       6.0000     15.9994
   53   2 H    1      32.600002   21.660002   29.347999       1.0000      1.0079
   54   2 H    1      16.940001   22.330000   30.057999       1.0000      1.0079
   55   1 O    8     -10.250001   15.960001   30.537999       6.0000     15.9994
   56   2 H    1     -10.610001   15.130001   30.047999       1.0000      1.0079
   57   2 H    1      -9.690001   16.420000   29.937999       1.0000      1.0079
   58   1 O    8      36.200001   10.610001   32.087999       6.0000     15.9994
   59   2 H    1      36.540001   10.090000   31.277999       1.0000      1.0079
   60   2 H    1      36.400002    9.960001   32.817998       1.0000      1.0079
   61   1 O    8     -42.690002    7.860000   37.997999       6.0000     15.9994
   62   2 H    1     -41.980003    7.240000   38.318000       1.0000      1.0079
   63   2 H    1     -42.290001    8.160001   37.107999       1.0000      1.0079
   64   1 O    8      19.580000   19.540001   29.287999       6.0000     15.9994
   65   2 H    1      19.890001   18.690001   29.727999       1.0000      1.0079
   66   2 H    1      18.640001   19.570002   29.267999       1.0000      1.0079
   67   1 O    8       8.290001    1.500000   32.758000       6.0000     15.9994
   68   2 H    1       7.540000    2.000000   33.287999       1.0000      1.0079
   69   2 H    1       8.040000    1.590000   31.797999       1.0000      1.0079
   70   1 O    8     -12.090001   -8.500000   32.628000       6.0000     15.9994
   71   2 H    1     -12.280001   -7.990000   31.817998       1.0000      1.0079
   72   2 H    1     -21.420002    5.990000   32.967999       1.0000      1.0079
   73   1 O    8       5.440001   24.010000   29.217999       6.0000     15.9994
   74   2 H    1       5.150001   23.090000   29.717999       1.0000      1.0079
   75   2 H    1       4.930000   24.780003   29.537999       1.0000      1.0079
   76   1 O    8       5.050000    9.400001   36.718000       6.0000     15.9994
   77   2 H    1       4.610000    8.950001   35.968000       1.0000      1.0079
   78   2 H    1       4.600000   10.320001   36.657999       1.0000      1.0079
   79   1 O    8     -24.440001   -4.880000   35.848000       6.0000     15.9994
   80   2 H    1     -25.340002   -5.300000   35.718000       1.0000      1.0079
   81   2 H    1     -24.190002   -5.420001   36.667999       1.0000      1.0079
   82   1 O    8      25.640001  -10.640000   30.347999       6.0000     15.9994
   83   2 H    1      26.130001   -9.790000   30.077998       1.0000      1.0079
   84   2 H    1      24.690001  -10.390000   30.427999       1.0000      1.0079
   85   1 O    8       0.150000   -9.790000   30.007999       6.0000     15.9994
   86   2 H    1       0.150000   -9.670001   30.987999       1.0000      1.0079
   87   2 H    1      -0.810000   -9.690001   29.817998       1.0000      1.0079
   88   1 O    8      52.440002   -6.340000   30.007999       6.0000     15.9994
   89   2 H    1      52.340004   -6.800000   29.157998       1.0000      1.0079
   90   2 H    1      52.240005   -5.380001   29.777999       1.0000      1.0079
   91   1 O    8      15.240001    1.400000   39.748000       6.0000     15.9994
   92   2 H    1      15.680000    0.750000   40.338001       1.0000      1.0079
   93   2 H    1      15.930000    1.850000   39.228000       1.0000      1.0079
   94   1 O    8      26.760002   26.830002   35.067999       6.0000     15.9994
   95   2 H    1      26.390001   27.130001   34.187999       1.0000      1.0079
   96   2 H    1      26.320002   25.990002   35.327999       1.0000      1.0079
   97   1 O    8     -23.050001   52.140003   33.607999       6.0000     15.9994
   98   2 H    1     -23.500002   52.350002   34.427999       1.0000      1.0079
   99   2 H    1     -22.180002   51.710007   33.798000       1.0000      1.0079
  100   1 O    8      20.870001   17.700001   30.607999       6.0000     15.9994
  101   2 H    1      21.690002   18.230001   30.507999       1.0000      1.0079
  102   2 H    1      21.080000   16.780001   30.307999       1.0000      1.0079
  103   1 O    8      23.190001    9.850000   30.457999       6.0000     15.9994
  104   2 H    1      22.250002    9.730001   30.147999       1.0000      1.0079
  105   2 H    1      23.680000    8.960000   30.257999       1.0000      1.0079
  106   1 O    8      17.270000   14.630001   36.387999       6.0000     15.9994
  107   2 H    1       9.120001   28.490002   35.747999       1.0000      1.0079
  108   2 H    1      17.620001   14.370001   37.287999       1.0000      1.0079
  109   1 O    8     -32.930000   -0.130000   30.197999       6.0000     15.9994
  110   2 H    1     -33.470001   -0.180000   29.337999       1.0000      1.0079
  111   2 H    1     -32.720001   -1.040000   30.497999       1.0000      1.0079
  112   1 O    8     -42.239998   31.290001   29.887999       6.0000     15.9994
  113   2 H    1     -42.760002   30.920002   29.087999       1.0000      1.0079
  114   2 H    1     -42.070004   32.250000   29.567999       1.0000      1.0079
  115   1 O    8       8.870000    8.720000   35.777999       6.0000     15.9994
  116   2 H    1      25.000000    9.360001   35.537999       1.0000      1.0079
  117   2 H    1       8.990001    8.230000   34.897999       1.0000      1.0079
  118   1 O    8      17.670000   51.420002   33.427999       6.0000     15.9994
  119   2 H    1      18.040001   52.310005   33.007999       1.0000      1.0079
  120   2 H    1      35.280003   50.730003   33.707999       1.0000      1.0079
  121   1 O    8      18.200001   13.310001   38.527999       6.0000     15.9994
  122   2 H    1       9.270000   27.150002   38.218000       1.0000      1.0079
  123   2 H    1      19.100000   13.270000   38.058000       1.0000      1.0079
  124   1 O    8       5.080000   -0.210000   29.747999       6.0000     15.9994
  125   2 H    1       5.890000   -0.850000   29.717999       1.0000      1.0079
  126   2 H    1       4.490000   -0.410000   28.957999       1.0000      1.0079
  127   1 O    8      26.670000  -18.310001   29.997999       6.0000     15.9994
  128   2 H    1      26.330002  -17.740000   30.777999       1.0000      1.0079
  129   2 H    1      26.300001  -17.900002   29.157998       1.0000      1.0079
  130   1 O    8       0.040000   -2.250000   38.787999       6.0000     15.9994
  131   2 H    1       0.040000   -3.210000   38.967998       1.0000      1.0079
  132   2 H    1      -0.470000   -1.850000   39.557998       1.0000      1.0079
  133   1 O    8      10.740000  -18.800001   33.607999       6.0000     15.9994
  134   2 H    1      11.540001  -18.250000   33.647999       1.0000      1.0079
  135   2 H    1      10.770000  -19.160002   34.537999       1.0000      1.0079
  136   1 O    8     -20.240002   32.890003   33.647999       6.0000     15.9994
  137   2 H    1     -20.150002   33.670002   33.037999       1.0000      1.0079
  138   2 H    1     -19.340002   32.560001   33.958000       1.0000      1.0079
  139   1 O    8      11.770000   14.640001   36.097999       6.0000     15.9994
  140   2 H    1      11.450001   14.880000   35.187999       1.0000      1.0079
  141   2 H    1      12.740001   14.930000   36.228000       1.0000      1.0079
  142   1 O    8      28.330002    5.690000   36.437999       6.0000     15.9994
  143   2 H    1      28.580000    4.700000   36.638000       1.0000      1.0079
  144   2 H    1      37.470001   20.980000   36.347999       1.0000      1.0079
  145   1 O    8      -0.750000    1.040000   32.907999       6.0000     15.9994
  146   2 H    1      -0.050000    1.710000   32.907999       1.0000      1.0079
  147   2 H    1      -1.150000    1.100000   31.968000       1.0000      1.0079
  148   1 O    8      10.360001   16.830002   29.407999       6.0000     15.9994
  149   2 H    1      -6.720000   15.880001   29.537999       1.0000      1.0079
  150   2 H    1       9.650001   17.350002   29.837999       1.0000      1.0079
  151   1 O    8       4.740000   15.960001   37.798000       6.0000     15.9994
  152   2 H    1       5.580000   15.930000   38.337999       1.0000      1.0079
  153   2 H    1       4.450000   15.080000   37.697999       1.0000      1.0079
  154   1 O    8     -17.060001    9.600000   29.527999       6.0000     15.9994
  155   2 H    1     -16.760002    8.930000   30.257999       1.0000      1.0079
  156   2 H    1     -18.030001    9.520000   29.347999       1.0000      1.0079
  157   1 O    8     -21.119999   17.780001   32.527999       6.0000     15.9994
  158   2 H    1     -20.750000   18.700001   32.517999       1.0000      1.0079
  159   2 H    1     -20.920000   17.510000   31.587999       1.0000      1.0079
  160   1 O    8     -15.160000   11.610001   29.287999       6.0000     15.9994
  161   2 H    1     -15.740002   10.830001   29.467999       1.0000      1.0079
  162   2 H    1     -15.470000   12.410001   29.887999       1.0000      1.0079
  163   1 O    8     -11.160001   -7.580000   38.607999       6.0000     15.9994
  164   2 H    1     -11.650001   -7.170000   37.847999       1.0000      1.0079
  165   2 H    1     -10.400001   -6.930000   38.838001       1.0000      1.0079
  166   1 O    8      37.420002  -14.280001   34.297999       6.0000     15.9994
  167   2 H    1      37.250000  -13.310001   34.067998       1.0000      1.0079
  168   2 H    1      38.440002  -14.270000   34.418000       1.0000      1.0079
  169   1 O    8      26.790001   20.780001   29.937999       6.0000     15.9994
  170   2 H    1      26.460001   21.650002   30.397999       1.0000      1.0079
  171   2 H    1      26.920002   20.910000   28.947999       1.0000      1.0079
  172   1 O    8       7.770000    5.680000   32.587999       6.0000     15.9994
  173   2 H    1       7.880001    5.240001   33.507999       1.0000      1.0079
  174   2 H    1       8.250000    6.570000   32.647999       1.0000      1.0079
  175   1 O    8      16.430000   13.390001   33.577998       6.0000     15.9994
  176   2 H    1      15.710001   12.860001   33.138000       1.0000      1.0079
  177   2 H    1      16.380001   14.330001   33.367999       1.0000      1.0079
  178   1 O    8       2.610000   15.400001   30.307999       6.0000     15.9994
  179   2 H    1       2.720000   14.980001   29.447998       1.0000      1.0079
  180   2 H    1       1.840000   16.049999   30.167999       1.0000      1.0079
  181   1 O    8     -10.690001   19.380001   30.187999       6.0000     15.9994
  182   2 H    1     -10.990001   20.140001   30.677999       1.0000      1.0079
  183   2 H    1     -10.810001   19.450001   29.217999       1.0000      1.0079
  184   1 O    8      -1.200000  -19.980001   39.638000       6.0000     15.9994
  185   2 H    1      -0.940000  -19.250000   38.958000       1.0000      1.0079
  186   2 H    1      -2.070000  -19.750002   40.007999       1.0000      1.0079
  187   1 O    8      -5.630000    9.860001   36.407999       6.0000     15.9994
  188   2 H    1      -6.520000    9.480001   36.527999       1.0000      1.0079
  189   2 H    1      -5.730000   10.870000   36.757999       1.0000      1.0079
  190   1 O    8      12.390001   41.910000   39.757999       6.0000     15.9994
  191   2 H    1      20.110001   26.960001   40.338001       1.0000      1.0079
  192   2 H    1      12.090001   41.610001   38.888000       1.0000      1.0079
  193   1 O    8      20.830002    8.400001   38.927999       6.0000     15.9994
  194   2 H    1      21.420002    8.800000   38.177999       1.0000      1.0079
  195   2 H    1      21.070002    7.400000   38.947999       1.0000      1.0079
  196   1 O    8       4.470000    7.130001   35.107999       6.0000     15.9994
  197   2 H    1       3.680000    6.730001   35.518000       1.0000      1.0079
  198   2 H    1       5.150001    6.790000   35.747999       1.0000      1.0079
  199   1 O    8      16.500000   -4.750000   39.847999       6.0000     15.9994
  200   2 H    1      16.710001   -5.550000   39.238000       1.0000      1.0079
  201   2 H    1      15.560001   -4.770000   40.067998       1.0000      1.0079
  202   1 O    8      22.750000   29.690001   36.718000       6.0000     15.9994
  203   2 H    1      23.380001   30.220001   36.097999       1.0000      1.0079
  204   2 H    1      23.080002   29.950001   37.617999       1.0000      1.0079
  205   1 O    8      29.630001   -1.510000   32.617999       6.0000     15.9994
  206   2 H    1      28.940001   -2.280000   32.637999       1.0000      1.0079
  207   2 H    1      29.290001   -0.730000   33.147998       1.0000      1.0079
  208   1 O    8      -8.950001  -24.480001   35.157999       6.0000     15.9994
  209   2 H    1      -9.610001  -24.270000   35.927999       1.0000      1.0079
  210   2 H    1      -8.400001  -25.300003   35.397999       1.0000      1.0079
  211   1 O    8      14.830000   12.530001   35.798000       6.0000     15.9994
  212   2 H    1      14.640001   13.390001   36.237998       1.0000      1.0079
  213   2 H    1      15.710001   12.630000   35.317998       1.0000      1.0079
  214   1 O    8     -13.130001  -25.440002   37.757999       6.0000     15.9994
  215   2 H    1     -12.850000  -25.660002   36.818000       1.0000      1.0079
  216   2 H    1     -13.610001  -26.220001   38.097999       1.0000      1.0079
  217   1 O    8      15.010000   -1.780000   36.677999       6.0000     15.9994
  218   2 H    1      15.320001   -2.530000   36.097999       1.0000      1.0079
  219   2 H    1      15.640001   -1.830000   37.408000       1.0000      1.0079
  220   1 O    8      13.080001   49.750004   39.388000       6.0000     15.9994
  221   2 H    1      12.360001   49.270000   39.828000       1.0000      1.0079
  222   2 H    1      13.790001   49.750004   40.048000       1.0000      1.0079
  223   1 O    8      21.280001   27.120001   33.678000       6.0000     15.9994
  224   2 H    1      20.810001   27.970001   33.507999       1.0000      1.0079
  225   2 H    1      21.870001   27.250002   34.458000       1.0000      1.0079
  226   1 O    8      28.690002   28.390003   37.127998       6.0000     15.9994
  227   2 H    1      20.700001   42.150002   36.888000       1.0000      1.0079
  228   2 H    1      20.230000   43.450005   36.228000       1.0000      1.0079
  229   1 O    8      10.200001    6.310000   38.658000       6.0000     15.9994
  230   2 H    1      10.930000    6.570000   39.298000       1.0000      1.0079
  231   2 H    1      10.640000    5.980001   37.838001       1.0000      1.0079
  232   1 O    8      -5.850000  -13.310001   38.568000       6.0000     15.9994
  233   2 H    1      -5.640000  -14.000001   37.937999       1.0000      1.0079
  234   2 H    1      -5.830000  -13.820001   39.388000       1.0000      1.0079
  235   1 O    8      -2.190000   29.790001   35.048000       6.0000     15.9994
  236   2 H    1      -1.800000   29.070000   35.638000       1.0000      1.0079
  237   2 H    1      -1.550000   29.890001   34.237999       1.0000      1.0079
  238   1 O    8      15.140000    8.950001   35.087999       6.0000     15.9994
  239   2 H    1      14.780001    9.670001   34.497999       1.0000      1.0079
  240   2 H    1      15.250001    8.030001   34.637999       1.0000      1.0079
  241   1 O    8       6.900001   -1.910000   30.177999       6.0000     15.9994
  242   2 H    1       7.760000   -1.540000   30.297999       1.0000      1.0079
  243   2 H    1       6.920000   -2.420000   29.367999       1.0000      1.0079
  244   1 O    8      -5.870000   12.440001   37.597999       6.0000     15.9994
  245   2 H    1      -6.760001   12.780001   37.927999       1.0000      1.0079
  246   2 H    1      -5.530000   13.110001   36.958000       1.0000      1.0079
  247   1 O    8      -3.880000    7.980001   36.467999       6.0000     15.9994
  248   2 H    1      -3.150000    8.350000   35.927999       1.0000      1.0079
  249   2 H    1      -4.610000    8.680000   36.567998       1.0000      1.0079
  250   1 O    8     -29.420002   21.740000   30.137999       6.0000     15.9994
  251   2 H    1     -29.820002   21.010000   29.547999       1.0000      1.0079
  252   2 H    1     -30.290001   22.210003   30.357999       1.0000      1.0079
  253   1 O    8      -1.220000    6.630001   33.457999       6.0000     15.9994
  254   2 H    1      -2.030000    6.380000   33.057999       1.0000      1.0079
  255   2 H    1      -0.780000    5.820000   33.897999       1.0000      1.0079
  256   1 O    8       7.090001  -11.220001   36.298000       6.0000     15.9994
  257   2 H    1       6.350000  -10.850000   36.847999       1.0000      1.0079
  258   2 H    1       6.800000  -12.160001   36.147999       1.0000      1.0079
  259   1 O    8      27.810001   14.460001   33.367999       6.0000     15.9994
  260   2 H    1      27.170002   13.860001   33.037999       1.0000      1.0079
  261   2 H    1      27.490002   15.420000   33.107999       1.0000      1.0079
  262   1 O    8     -18.590000   15.740002   39.058000       6.0000     15.9994
  263   2 H    1     -18.540001   14.820002   39.447999       1.0000      1.0079
  264   2 H    1     -17.700001   16.200001   39.017999       1.0000      1.0079
  265   1 O    8     -16.550001    7.980001   31.558000       6.0000     15.9994
  266   2 H    1     -17.000000    7.250000   32.077998       1.0000      1.0079
  267   2 H    1     -15.870001    8.140000   32.287999       1.0000      1.0079
  268   1 O    8     -22.920000   20.210001   36.117999       6.0000     15.9994
  269   2 H    1     -22.570002   19.610001   36.827998       1.0000      1.0079
  270   2 H    1     -23.680000   19.680000   35.867999       1.0000      1.0079
  271   1 O    8       9.650001  -11.550001   32.597999       6.0000     15.9994
  272   2 H    1       9.300001  -11.120001   31.677999       1.0000      1.0079
  273   2 H    1      10.640000  -11.370001   32.557998       1.0000      1.0079
  274   1 O    8      19.650002   16.320002   39.828000       6.0000     15.9994
  275   2 H    1      20.450001   16.130001   39.298000       1.0000      1.0079
  276   2 H    1      19.780001   17.220001   40.197999       1.0000      1.0079
  277   1 O    8      14.130001    4.470000   38.468000       6.0000     15.9994
  278   2 H    1      14.310001    4.340000   39.398000       1.0000      1.0079
  279   2 H    1      14.070001    5.470000   38.398000       1.0000      1.0079
  280   1 O    8      18.180000    7.800000   37.717998       6.0000     15.9994
  281   2 H    1      19.010002    8.120001   38.177999       1.0000      1.0079
  282   2 H    1      18.380001    6.980000   37.178001       1.0000      1.0079
  283   1 O    8      -9.490001   26.170002   38.177999       6.0000     15.9994
  284   2 H    1       7.010000   26.800001   38.867999       1.0000      1.0079
  285   2 H    1       7.030000   26.410000   37.257999       1.0000      1.0079
  286   1 O    8      -2.260000   17.070002   34.157999       6.0000     15.9994
  287   2 H    1      -1.980000   17.960001   34.477999       1.0000      1.0079
  288   2 H    1      -2.990000   17.290001   33.487999       1.0000      1.0079
  289   1 O    8      50.840000    4.650001   34.627999       6.0000     15.9994
  290   2 H    1      51.220001    4.010000   33.878000       1.0000      1.0079
  291   2 H    1      50.160004    4.190001   35.077999       1.0000      1.0079
  292   1 O    8      14.630001   20.640001   36.918000       6.0000     15.9994
  293   2 H    1      14.150001   20.330000   37.708000       1.0000      1.0079
  294   2 H    1      15.130001   21.410000   37.307998       1.0000      1.0079
  295   1 O    8     -21.100002  -37.250000   30.397999       6.0000     15.9994
  296   2 H    1     -22.080002  -37.590000   30.307999       1.0000      1.0079
  297   2 H    1     -20.740002  -37.510002   31.317999       1.0000      1.0079
  298   1 O    8      -7.440000   28.180000   30.967999       6.0000     15.9994
  299   2 H    1      -6.940000   28.990002   30.747999       1.0000      1.0079
  300   2 H    1      -7.420001   27.990000   31.937999       1.0000      1.0079
  301   1 O    8     -24.740002  -11.420001   38.557998       6.0000     15.9994
  302   2 H    1     -25.440002  -11.220001   37.927999       1.0000      1.0079
  303   2 H    1      -7.390000  -12.210001   38.257999       1.0000      1.0079
  304   3 Pt  78       1.390000    0.650000   15.260002      10.0000    195.0840
  305   3 Pt  78       4.200000    0.920000   15.250000      10.0000    195.0840
  306   3 Pt  78       7.110000    0.770000   15.379997      10.0000    195.0840
  307   3 Pt  78       9.870001    0.710000   15.260002      10.0000    195.0840
  308   3 Pt  78      12.690001    0.750000   15.309998      10.0000    195.0840
  309   3 Pt  78      15.400001    0.660000   15.090000      10.0000    195.0840
  310   3 Pt  78       2.820000    3.230000   15.320000      10.0000    195.0840
  311   3 Pt  78       5.770000    3.210000   15.209999      10.0000    195.0840
  312   3 Pt  78       8.490001    3.170000   15.279999      10.0000    195.0840
  313   3 Pt  78      11.230000    3.180000   15.260002      10.0000    195.0840
  314   3 Pt  78      14.140000    3.050000   15.379997      10.0000    195.0840
  315   3 Pt  78      -0.060000    3.090000   15.309998      10.0000    195.0840
  316   3 Pt  78       4.300000    5.560000   15.379997      10.0000    195.0840
  317   3 Pt  78       7.060000    5.570001   15.130001      10.0000    195.0840
  318   3 Pt  78       9.930000    5.530000   15.270000      10.0000    195.0840
  319   3 Pt  78      12.750001    5.610001   15.330002      10.0000    195.0840
  320   3 Pt  78      -1.420000    5.650000   15.209999      10.0000    195.0840
  321   3 Pt  78       1.470000    5.610001   15.260002      10.0000    195.0840
  322   3 Pt  78       5.730000    7.920001   15.340000      10.0000    195.0840
  323   3 Pt  78       8.560000    7.940001   15.149998      10.0000    195.0840
  324   3 Pt  78      11.400002    7.900000   15.200001      10.0000    195.0840
  325   3 Pt  78      -2.720000    8.160001   15.299999      10.0000    195.0840
  326   3 Pt  78       0.050000    8.220000   15.279999      10.0000    195.0840
  327   3 Pt  78       2.980000    8.010000   15.389999      10.0000    195.0840
  328   3 Pt  78       7.310000   10.420000   15.000000      10.0000    195.0840
  329   3 Pt  78      10.050000   10.330000   15.139999      10.0000    195.0840
  330   3 Pt  78      -4.050000   10.550001   15.309998      10.0000    195.0840
  331   3 Pt  78      -1.340000   10.590000   15.160000      10.0000    195.0840
  332   3 Pt  78       1.480000   10.559999   15.410000      10.0000    195.0840
  333   3 Pt  78       4.240000   10.450001   15.320000      10.0000    195.0840
  334   3 Pt  78       8.460000   12.930001   15.090000      10.0000    195.0840
  335   3 Pt  78      -5.430000   13.010001   15.180000      10.0000    195.0840
  336   3 Pt  78      -2.700000   13.050001   15.190002      10.0000    195.0840
  337   3 Pt  78       0.120000   12.910000   15.279999      10.0000    195.0840
  338   3 Pt  78       2.850000   12.910000   15.049999      10.0000    195.0840
  339   3 Pt  78       5.750000   12.750001   15.120003      10.0000    195.0840
  340   3 Pt  78       0.090000    1.560000   17.649998      10.0000    195.0840
  341   3 Pt  78       2.940000    1.500000   17.490002      10.0000    195.0840
  342   3 Pt  78       5.760000    1.580000   17.649998      10.0000    195.0840
  343   3 Pt  78       8.540000    1.480000   17.690002      10.0000    195.0840
  344   3 Pt  78      11.400002    1.490000   17.649998      10.0000    195.0840
  345   3 Pt  78      14.070001    1.480000   17.720001      10.0000    195.0840
  346   3 Pt  78       1.620000    4.010000   17.620003      10.0000    195.0840
  347   3 Pt  78       4.520000    3.960000   17.570000      10.0000    195.0840
  348   3 Pt  78       7.280001    3.950000   17.669998      10.0000    195.0840
  349   3 Pt  78       9.940001    3.980000   17.760002      10.0000    195.0840
  350   3 Pt  78      12.750001    3.920000   17.560001      10.0000    195.0840
  351   3 Pt  78      -1.240000    4.010000   17.570000      10.0000    195.0840
  352   3 Pt  78       3.070000    6.460000   17.630001      10.0000    195.0840
  353   3 Pt  78       5.820000    6.420000   17.669998      10.0000    195.0840
  354   3 Pt  78       8.530001    6.430000   17.570000      10.0000    195.0840
  355   3 Pt  78      11.310000    6.410000   17.630001      10.0000    195.0840
  356   3 Pt  78      -2.670000    6.430000   17.610001      10.0000    195.0840
  357   3 Pt  78       0.270000    6.410000   17.509998      10.0000    195.0840
  358   3 Pt  78       4.530000    8.930000   17.700001      10.0000    195.0840
  359   3 Pt  78       7.280001    8.880001   17.540001      10.0000    195.0840
  360   3 Pt  78       9.950001    8.850000   17.459999      10.0000    195.0840
  361   3 Pt  78      -4.120000    8.810000   17.570000      10.0000    195.0840
  362   3 Pt  78      -1.170000    8.840000   17.579998      10.0000    195.0840
  363   3 Pt  78       1.600000    8.820001   17.660000      10.0000    195.0840
  364   3 Pt  78       5.870000   11.270000   17.560001      10.0000    195.0840
  365   3 Pt  78       8.570001   11.270000   17.549999      10.0000    195.0840
  366   3 Pt  78      -5.460000   11.240001   17.520000      10.0000    195.0840
  367   3 Pt  78      -2.530000   11.160001   17.630001      10.0000    195.0840
  368   3 Pt  78       0.220000   11.210001   17.610001      10.0000    195.0840
  369   3 Pt  78       2.960000   11.260000   17.620003      10.0000    195.0840
  370   3 Pt  78       7.140000   13.710001   17.579998      10.0000    195.0840
  371   3 Pt  78      -7.020000   13.770000   17.529999      10.0000    195.0840
  372   3 Pt  78      -4.070000   13.700001   17.520000      10.0000    195.0840
  373   3 Pt  78      -1.320000   13.590001   17.680000      10.0000    195.0840
  374   3 Pt  78       1.540000   13.690001   17.680000      10.0000    195.0840
  375   3 Pt  78       4.320000   13.670001   17.560001      10.0000    195.0840
  376   3 Pt  78      -8.280001   14.510001   19.900002      10.0000    195.0840
  377   3 Pt  78      -5.410000   14.550000   19.790001      10.0000    195.0840
  378   3 Pt  78      -2.590000   14.440001   19.959999      10.0000    195.0840
  379   3 Pt  78       0.190000   14.440001   19.930000      10.0000    195.0840
  380   3 Pt  78       3.010000   14.490002   20.010002      10.0000    195.0840
  381   3 Pt  78       5.790000   14.520000   20.020000      10.0000    195.0840
  382   3 Pt  78       1.560000    2.410000   19.889999      10.0000    195.0840
  383   3 Pt  78       4.440001    2.400000   19.930000      10.0000    195.0840
  384   3 Pt  78       7.210000    2.350000   19.989998      10.0000    195.0840
  385   3 Pt  78      10.000000    2.210000   19.930000      10.0000    195.0840
  386   3 Pt  78      12.900001    2.330000   20.070004      10.0000    195.0840
  387   3 Pt  78      -1.220000    2.360000   19.980000      10.0000    195.0840
  388   3 Pt  78       3.130000    4.850000   19.900002      10.0000    195.0840
  389   3 Pt  78       5.850000    4.790000   19.950001      10.0000    195.0840
  390   3 Pt  78       8.720000    4.810000   20.020000      10.0000    195.0840
  391   3 Pt  78      11.360001    4.810000   19.970001      10.0000    195.0840
  392   3 Pt  78      -2.620000    4.740000   19.950001      10.0000    195.0840
  393   3 Pt  78       0.210000    4.730000   19.930000      10.0000    195.0840
  394   3 Pt  78       4.360000    7.280001   19.930000      10.0000    195.0840
  395   3 Pt  78       7.190001    7.160000   19.950001      10.0000    195.0840
  396   3 Pt  78      10.050000    7.330000   19.870003      10.0000    195.0840
  397   3 Pt  78      -4.090000    7.240000   19.919998      10.0000    195.0840
  398   3 Pt  78      -1.160000    7.200000   19.940002      10.0000    195.0840
  399   3 Pt  78       1.620000    7.200000   19.959999      10.0000    195.0840
  400   3 Pt  78       5.860000    9.720000   19.950001      10.0000    195.0840
  401   3 Pt  78       8.620001    9.660000   19.849998      10.0000    195.0840
  402   3 Pt  78      -5.380001    9.730001   19.810001      10.0000    195.0840
  403   3 Pt  78      -2.550000    9.590000   19.919998      10.0000    195.0840
  404   3 Pt  78       0.310000    9.600000   19.930000      10.0000    195.0840
  405   3 Pt  78       3.040000    9.680000   19.989998      10.0000    195.0840
  406   3 Pt  78       7.210000   12.100000   19.950001      10.0000    195.0840
  407   3 Pt  78      -6.920000   12.130001   19.810001      10.0000    195.0840
  408   3 Pt  78      -3.930000   12.070000   19.910000      10.0000    195.0840
  409   3 Pt  78      -1.160000   11.970000   19.930000      10.0000    195.0840
  410   3 Pt  78       1.570000   12.090001   20.029999      10.0000    195.0840
  411   3 Pt  78       4.330000   12.160001   19.959999      10.0000    195.0840
  412   3 Pt  78       1.590000    0.710000   22.107999      10.0000    195.0840
  413   3 Pt  78       4.430000    0.680000   22.117998      10.0000    195.0840
  414   3 Pt  78       7.180000    0.730000   22.247999      10.0000    195.0840
  415   3 Pt  78       9.960001    0.630000   22.387999      10.0000    195.0840
  416   3 Pt  78      12.800001    0.630000   22.327998      10.0000    195.0840
  417   3 Pt  78      15.520000    0.730000   22.357999      10.0000    195.0840
  418   3 Pt  78       3.010000    3.080000   22.217999      10.0000    195.0840
  419   3 Pt  78       5.770000    3.150000   22.317998      10.0000    195.0840
  420   3 Pt  78       8.580000    3.210000   22.297998      10.0000    195.0840
  421   3 Pt  78      11.340000    3.060000   22.317998      10.0000    195.0840
  422   3 Pt  78      14.200001    3.070000   22.367999      10.0000    195.0840
  423   3 Pt  78       0.170000    3.080000   22.317998      10.0000    195.0840
  424   3 Pt  78       4.350000    5.550000   22.237999      10.0000    195.0840
  425   3 Pt  78       7.080000    5.670000   22.277999      10.0000    195.0840
  426   3 Pt  78       9.920000    5.620000   22.297998      10.0000    195.0840
  427   3 Pt  78      12.690001    5.520000   22.207999      10.0000    195.0840
  428   3 Pt  78      -1.210000    5.510000   22.217999      10.0000    195.0840
  429   3 Pt  78       1.620000    5.480001   22.167998      10.0000    195.0840
  430   3 Pt  78       5.800000    8.140000   22.237999      10.0000    195.0840
  431   3 Pt  78       8.600000    8.090000   22.257999      10.0000    195.0840
  432   3 Pt  78      11.420001    8.030001   22.297998      10.0000    195.0840
  433   3 Pt  78      -2.670000    7.920001   22.247999      10.0000    195.0840
  434   3 Pt  78       0.180000    7.950000   22.207999      10.0000    195.0840
  435   3 Pt  78       2.980000    8.020000   22.257999      10.0000    195.0840
  436   3 Pt  78       7.200000   10.510000   22.207999      10.0000    195.0840
  437   3 Pt  78       9.970000   10.450001   22.137999      10.0000    195.0840
  438   3 Pt  78      -4.050000   10.440001   22.167998      10.0000    195.0840
  439   3 Pt  78      -1.260000   10.350000   22.277999      10.0000    195.0840
  440   3 Pt  78       1.460000   10.500001   22.337998      10.0000    195.0840
  441   3 Pt  78       4.360000   10.480001   22.267999      10.0000    195.0840
  442   3 Pt  78       8.530001   12.940001   22.267999      10.0000    195.0840
  443   3 Pt  78      -5.520000   12.830001   21.997999      10.0000    195.0840
  444   3 Pt  78      -2.620000   12.810000   22.257999      10.0000    195.0840
  445   3 Pt  78       0.030000   12.840000   22.307998      10.0000    195.0840
  446   3 Pt  78       2.890000   12.890000   22.377999      10.0000    195.0840
  447   3 Pt  78       5.660000   12.900001   22.297998      10.0000    195.0840
  448   3 Pt  78       0.250000    1.340000   24.657999      10.0000    195.0840
  449   3 Pt  78       2.920000    1.400000   24.507999      10.0000    195.0840
  450   3 Pt  78       5.740000    1.320000   24.407998      10.0000    195.0840
  451   3 Pt  78       8.700001    1.520000   24.597999      10.0000    195.0840
  452   3 Pt  78      11.410000    1.450000   24.627999      10.0000    195.0840
  453   3 Pt  78      14.120001    1.520000   24.647999      10.0000    195.0840
  454   3 Pt  78       1.680000    3.820000   24.567998      10.0000    195.0840
  455   3 Pt  78       4.330000    3.860000   24.587999      10.0000    195.0840
  456   3 Pt  78       7.110000    3.930000   24.667999      10.0000    195.0840
  457   3 Pt  78      10.050000    3.970000   24.577999      10.0000    195.0840
  458   3 Pt  78      12.860001    3.840000   24.557999      10.0000    195.0840
  459   3 Pt  78      -1.150000    3.810000   24.567998      10.0000    195.0840
  460   3 Pt  78       2.930000    6.270000   24.517999      10.0000    195.0840
  461   3 Pt  78       5.720000    6.340000   24.607999      10.0000    195.0840
  462   3 Pt  78       8.480000    6.380000   24.617998      10.0000    195.0840
  463   3 Pt  78      11.440001    6.390000   24.557999      10.0000    195.0840
  464   3 Pt  78      -2.590000    6.210001   24.517999      10.0000    195.0840
  465   3 Pt  78       0.220000    6.340000   24.527999      10.0000    195.0840
  466   3 Pt  78       4.370000    8.730000   24.627999      10.0000    195.0840
  467   3 Pt  78       7.070000    8.740000   24.527999      10.0000    195.0840
  468   3 Pt  78       9.970000    8.810000   24.547998      10.0000    195.0840
  469   3 Pt  78      -4.080000    8.810000   24.607999      10.0000    195.0840
  470   3 Pt  78      -1.270000    8.670000   24.567998      10.0000    195.0840
  471   3 Pt  78       1.660000    8.630000   24.597999      10.0000    195.0840
  472   3 Pt  78       5.660000   11.160001   24.657999      10.0000    195.0840
  473   3 Pt  78       8.460000   11.090001   24.627999      10.0000    195.0840
  474   3 Pt  78      -5.500000   11.180000   24.367999      10.0000    195.0840
  475   3 Pt  78      -2.660000   11.210001   24.527999      10.0000    195.0840
  476   3 Pt  78       0.180000   11.090001   24.657999      10.0000    195.0840
  477   3 Pt  78       2.880000   11.090001   24.647999      10.0000    195.0840
  478   3 Pt  78       7.190001   13.650000   24.577999      10.0000    195.0840
  479   3 Pt  78      -6.960001   13.490001   24.537999      10.0000    195.0840
  480   3 Pt  78      -4.200000   13.670001   24.397999      10.0000    195.0840
  481   3 Pt  78      -1.280000   13.650000   24.527999      10.0000    195.0840
  482   3 Pt  78       1.490000   13.440001   24.677999      10.0000    195.0840
  483   3 Pt  78       4.410000   13.560000   24.657999      10.0000    195.0840
  484   3 Pt  78      -8.350000   14.420000   27.097999      10.0000    195.0840
  485   3 Pt  78      -5.620000   14.310001   26.867999      10.0000    195.0840
  486   3 Pt  78      -2.670000   14.290000   26.827999      10.0000    195.0840
  487   3 Pt  78       0.160000   14.340000   27.027999      10.0000    195.0840
  488   3 Pt  78       2.870000   14.440001   26.977999      10.0000    195.0840
  489   3 Pt  78       5.680000   14.310001   26.957999      10.0000    195.0840
  490   3 Pt  78       1.650000    2.220000   27.037999      10.0000    195.0840
  491   3 Pt  78       4.310000    2.100000   26.717999      10.0000    195.0840
  492   3 Pt  78       7.120000    2.150000   26.837999      10.0000    195.0840
  493   3 Pt  78       9.870001    2.160000   26.957999      10.0000    195.0840
  494   3 Pt  78      12.820001    2.220000   27.037999      10.0000    195.0840
  495   3 Pt  78      -1.280000    2.210000   26.947998      10.0000    195.0840
  496   3 Pt  78       2.950000    4.640000   26.987999      10.0000    195.0840
  497   3 Pt  78       5.820000    4.610000   27.017999      10.0000    195.0840
  498   3 Pt  78       8.600000    4.640000   26.867999      10.0000    195.0840
  499   3 Pt  78      11.600000    4.680000   26.917999      10.0000    195.0840
  500   3 Pt  78      -2.550000    4.680000   27.057999      10.0000    195.0840
  501   3 Pt  78       0.120000    4.620000   26.827999      10.0000    195.0840
  502   3 Pt  78       4.430000    6.970000   26.917999      10.0000    195.0840
  503   3 Pt  78       7.170000    7.100000   26.907998      10.0000    195.0840
  504   3 Pt  78      10.090000    7.030000   26.757999      10.0000    195.0840
  505   3 Pt  78      -3.950000    7.060000   26.807998      10.0000    195.0840
[...]
 -                                                                             -
 -------------------------------------------------------------------------------
 COUNTER                                    TOTAL       BLAS       SMM       ACC
 flops     5 x    32 x     5           4047360000       0.0%    100.0%      0.0%
 flops    13 x    32 x     5           5165621760       0.0%    100.0%      0.0%
 flops     5 x    32 x    13           5165621760       0.0%    100.0%      0.0%
 flops    13 x    32 x    13           6108422528       0.0%    100.0%      0.0%
 flops     5 x     5 x    96           7478764800       0.0%    100.0%      0.0%
 flops    13 x    32 x    20           8641351680       0.0%    100.0%      0.0%
 flops    20 x    32 x    13           8641351680       0.0%    100.0%      0.0%
 flops     5 x    32 x    20           9323609600       0.0%    100.0%      0.0%
 flops    20 x    32 x     5           9323609600       0.0%    100.0%      0.0%
 flops    13 x     5 x    96           9496181760       0.0%    100.0%      0.0%
 flops     5 x    13 x    96           9499975680       0.0%    100.0%      0.0%
 flops    13 x    13 x    96          11356151040       0.0%    100.0%      0.0%
 flops    20 x    13 x    96          15862379520       0.0%    100.0%      0.0%
 flops    13 x    20 x    96          15915494400       0.0%    100.0%      0.0%
 flops    20 x     5 x    96          17125171200       0.0%    100.0%      0.0%
 flops     5 x    20 x    96          17161651200       0.0%    100.0%      0.0%
 flops     5 x     5 x   128          69801804800       0.0%    100.0%      0.0%
 flops    20 x    32 x    20          74052403200       0.0%    100.0%      0.0%
 flops    13 x     5 x   128          88631029760       0.0%    100.0%      0.0%
 flops     5 x    13 x   128          88666439680       0.0%    100.0%      0.0%
 flops    13 x    13 x   128         105990743040       0.0%    100.0%      0.0%
 flops    20 x    20 x    96         136791244800       0.0%    100.0%      0.0%
 flops    20 x    13 x   128         148048875520       0.0%    100.0%      0.0%
 flops    13 x    20 x   128         148544614400       0.0%    100.0%      0.0%
 flops    20 x     5 x   128         159834931200       0.0%    100.0%      0.0%
 flops     5 x    20 x   128         160175411200       0.0%    100.0%      0.0%
 flops    20 x    20 x   128        1276718284800       0.0%    100.0%      0.0%
 flops inhomo. stacks                           0       0.0%      0.0%      0.0%
 flops total                         2.617569E+12       0.0%    100.0%      0.0%
 flops max/rank                     22.597881E+09       0.0%    100.0%      0.0%
 matmuls inhomo. stacks                         0       0.0%      0.0%      0.0%
 matmuls total                           73492098       0.0%    100.0%      0.0%
 number of processed stacks                721480       0.0%    100.0%      0.0%
 average stack size                                     0.0     101.9       0.0
 marketing flops                     5.355196E+12
 -------------------------------------------------------------------------------
 # multiplications                             39
 max memory usage/rank               1.603314E+09
 # max total images/rank                        2
 # max 3D layers                                1
 # MPI messages exchanged                  144768
 MPI messages size (bytes):
  total size                        92.829630E+09
  min size                         288.768000E+03
  max size                           2.233008E+06
  average size                     641.230312E+03
 MPI breakdown and total messages size (bytes):
             size <=      128                   0                        0
       128 < size <=     8192                   0                        0
      8192 < size <=    32768                   0                        0
     32768 < size <=   131072                   0                        0
    131072 < size <=  4194304              144768              92829623448
   4194304 < size <= 16777216                   0                        0
  16777216 < size                               0                        0
 -------------------------------------------------------------------------------

 *** WARNING in dbcsr_mm.F:290 :: Using a non-square number of MPI ranks ***
 *** might lead to poor performance. Used ranks: 128 Suggested: 121 256  ***

 -------------------------------------------------------------------------------
 -                                                                             -
 -                      DBCSR MESSAGE PASSING PERFORMANCE                      -
 -                                                                             -
 -------------------------------------------------------------------------------
 ROUTINE             CALLS      AVE VOLUME [Bytes]
 MP_Bcast               28                     12.
 MP_Allreduce          340                     12.
 MP_Alltoall          1085                 570189.
 MP_ISend             2496                 302207.
 MP_IRecv             2496                 295761.
 -------------------------------------------------------------------------------

 -------------------------------------------------------------------------------
 -                                                                             -
 -                                DBM STATISTICS                               -
 -                                                                             -
 -------------------------------------------------------------------------------
    M  x    N  x    K                                          COUNT     PERCENT
 -------------------------------------------------------------------------------

 -------------------------------------------------------------------------------
 -                                                                             -
 -                                GRID STATISTICS                              -
 -                                                                             -
 -------------------------------------------------------------------------------
 LP    KERNEL             BACKEND                              COUNT     PERCENT
 4     collocate general  REF                               15026514      21.88%
 4     integrate general  REF                               14908676      21.71%
 3     collocate general  REF                               10666508      15.53%
 3     integrate general  REF                               10608155      15.45%
 2     collocate general  REF                                8507447      12.39%
 2     integrate general  REF                                8277516      12.05%
 5     integrate general  REF                                 406122       0.59%
 0     collocate general  REF                                 132864       0.19%
 0     integrate general  REF                                  66432       0.10%
 1     integrate general  REF                                  66432       0.10%
 -------------------------------------------------------------------------------

 MEMORY| Estimated peak process memory [MiB]                                1803

 -------------------------------------------------------------------------------
 ----                             MULTIGRID INFO                            ----
 -------------------------------------------------------------------------------
 count for grid        1:        1098520          cutoff [a.u.]          200.00
 count for grid        2:        1093517          cutoff [a.u.]           66.67
 count for grid        3:         719179          cutoff [a.u.]           22.22
 count for grid        4:         558462          cutoff [a.u.]            7.41
 total gridlevel count  :        3469678

 -------------------------------------------------------------------------------
 -                                                                             -
 -                         MESSAGE PASSING PERFORMANCE                         -
 -                                                                             -
 -------------------------------------------------------------------------------

 ROUTINE             CALLS      AVE VOLUME [Bytes]
 MP_Group                4
 MP_Bcast             2207                 306289.
 MP_Allreduce         3378                  32285.
 MP_Sync                80
 MP_Alltoall          2242               16839616.
 MP_SendRecv           508                   6225.
 MP_ISendRecv        18796                  61740.
 MP_Wait             33346
 MP_comm_split          38
 MP_ISend            13716                 256145.
 MP_IRecv            13716                 256145.
 MP_Recv               122                1700608.
 MP_Write_All            3                1797408.
 -------------------------------------------------------------------------------


 -------------------------------------------------------------------------------
 -                                                                             -
 -                           R E F E R E N C E S                               -
 -                                                                             -
 -------------------------------------------------------------------------------
 
 CP2K version 2022.1, the CP2K developers group (2022).
 CP2K is freely available from https://www.cp2k.org/ .

 Kuehne,Thomas D.; Iannuzzi,Marcella; Del Ben,Mauro;
 Rybkin,Vladimir V.; Seewald,Patrick; Stein,Frederick; Laino,Teodoro;
 Khaliullin,Rustam Z.; Schuett,Ole; Schiffmann,Florian; Golze,Dorothea;
 Wilhelm,Jan; Chulkov,Sergey; Bani-Hashemian,Mohammad Hossein;
 Weber,Valery; Borstnik,Urban; Taillefumier,Mathieu;
 Jakobovits,Alice Shoshana; Lazzaro,Alfio; Pabst,Hans; Mueller,Tiziano;
 Schade,Robert; Guidon,Manuel; Andermatt,Samuel; Holmberg,Nico;
 Schenter,Gregory K.; Hehn,Anna; Bussy,Augustin; Belleflamme,Fabian;
 Tabacchi,Gloria; Gloess,Andreas; Lass,Michael; Bethune,Iain;
 Mundy,Christopher J.; Plessl,Christian; Watkins,Matt;
 VandeVondele,Joost; Krack,Matthias; Hutter,Juerg. 
 The Journal of Chemical Physics, 152 (19), (2020). 
 CP2K: An electronic structure and molecular dynamics software package -
 Quickstep: Efficient and accurate electronic structure calculations.
 https://doi.org/10.1063/5.0007045

 Goerigk, Lars; Hansen, Andreas; Bauer, Christoph; Ehrlich, Stephan;
 Najibi, Asim; Grimme, Stefan. , 19 (48), (2017). 
 A look at the density functional theory zoo with the advanced GMTKN55 database
 for general main group thermochemistry, kinetics and noncovalent interactions.
 https://doi.org/10.1039/C7CP04913G

 Bani-Hashemian, MH; Bruck, S; Luisier, M; VandeVondele, J. 
 JOURNAL OF CHEMICAL PHYSICS, 144 (4), 044113 (2016). 
 A generalized Poisson solver for first-principles device simulations.
 https://doi.org/10.1063/1.4940796

 Schuett, Ole; Messmer, Peter; Hutter, Juerg; VandeVondele, Joost. 
 Electronic Structure Calculations on Graphics Processing Units, John
 Wiley & Sons, Ltd, 173-190 (2016). 
 GPU-Accelerated Sparse Matrix-Matrix Multiplication for
 Linear Scaling Density Functional Theory.
 https://doi.org/10.1002/9781118670712.ch8

 Heinecke, A; Henry, G; Hutchinson, M; Pabst, H. 
 Proceedings of Intl. Supercomputing Conference, 981-991 (2016). 
 LIBXSMM: Accelerating Small Matrix Multiplications
 by Runtime Code Generation.
 https://doi.org/10.1109/SC.2016.83

 Borstnik, U; VandeVondele, J; Weber, V; Hutter, J. 
 PARALLEL COMPUTING, 40 (5-6), 47-58 (2014). 
 Sparse matrix multiplication: The distributed block-compressed sparse
 row library.
 https://doi.org/10.1016/j.parco.2014.03.012

 Hutter, J; Iannuzzi, M; Schiffmann, F; VandeVondele, J. 
 WIREs Comput Mol Sci., 4 (1), 15-25 (2014). 
 CP2K: atomistic simulations of condensed matter systems.
 https://doi.org/10.1002/wcms.1159

 Marek, A; Blum, V; Johanni, R; Havu, V; Lang, B; Auckenthaler, T;
 Heinecke, A; Bungartz, H; Lederer, H. 
 Journal of Physics: Condensed Matter, 26 (21), (2014). 
 The ELPA library: scalable parallel eigenvalue solutions for
 electronic structure
 theory and computational science.
 https://doi.org/10.1088/0953-8984/26/21/213201

 Grimme, S; Ehrlich, S; Goerigk, L. 
 JOURNAL OF COMPUTATIONAL CHEMISTRY, 32, 1456 (2011). 
 Effect of the damping function in dispersion corrected density functional theory.
 https://doi.org/10.1002/jcc.21759

 Grimme, S; Antony, J; Ehrlich, S; Krieg, H. 
 JOURNAL OF CHEMICAL PHYSICS, 132 (15), 154104 (2010). 
 A consistent and accurate ab initio parametrization of density
 functional dispersion correction (DFT-D) for the 94 elements H-Pu.
 https://doi.org/10.1063/1.3382344

 VandeVondele, J; Hutter, J. 
 JOURNAL OF CHEMICAL PHYSICS, 127 (11), 114105 (2007). 
 Gaussian basis sets for accurate calculations on molecular systems in
 gas and condensed phases.
 https://doi.org/10.1063/1.2770708

 Krack, M. 
 THEORETICAL CHEMISTRY ACCOUNTS, 114 (1-3), 145-152 (2005). 
 Pseudopotentials for H to Kr optimized for gradient-corrected
 exchange-correlation functionals.
 https://doi.org/10.1007/s00214-005-0655-y

 VandeVondele, J; Krack, M; Mohamed, F; Parrinello, M; Chassaing, T;
 Hutter, J. COMPUTER PHYSICS COMMUNICATIONS, 167 (2), 103-128 (2005). 
 QUICKSTEP: Fast and accurate density functional calculations using a
 mixed Gaussian and plane waves approach.
 https://doi.org/10.1016/j.cpc.2004.12.014

 Frigo, M; Johnson, SG. 
 PROCEEDINGS OF THE IEEE, 93 (2), 216-231 (2005). 
 The design and implementation of FFTW3.
 https://doi.org/10.1109/JPROC.2004.840301

 Hartwigsen, C; Goedecker, S; Hutter, J. 
 PHYSICAL REVIEW B, 58 (7), 3641-3662 (1998). 
 Relativistic separable dual-space Gaussian pseudopotentials from H to Rn.
 https://doi.org/10.1103/PhysRevB.58.3641

 Lippert, G; Hutter, J; Parrinello, M. 
 MOLECULAR PHYSICS, 92 (3), 477-487 (1997). 
 A hybrid Gaussian and plane wave density functional scheme.
 https://doi.org/10.1080/002689797170220

 Perdew, JP; Burke, K; Ernzerhof, M. 
 PHYSICAL REVIEW LETTERS, 77 (18), 3865-3868 (1996). 
 Generalized gradient approximation made simple.
 https://doi.org/10.1103/PhysRevLett.77.3865

 Goedecker, S; Teter, M; Hutter, J. 
 PHYSICAL REVIEW B, 54 (3), 1703-1710 (1996). 
 Separable dual-space Gaussian pseudopotentials.
 https://doi.org/10.1103/PhysRevB.54.1703


 -------------------------------------------------------------------------------
 -                                                                             -
 -                                T I M I N G                                  -
 -                                                                             -
 -------------------------------------------------------------------------------
 SUBROUTINE                       CALLS  ASD         SELF TIME        TOTAL TIME
                                MAXIMUM       AVERAGE  MAXIMUM  AVERAGE  MAXIMUM
 CP2K                                 1  1.0    0.029    0.045  262.109  262.110
 qs_forces                            1  2.0    0.002    0.002  261.752  261.753
 qs_energies                          1  3.0    0.000    0.001  255.637  255.642
 scf_env_do_scf                       1  4.0    0.000    0.000  246.416  246.563
 scf_env_do_scf_inner_loop           36  5.0    0.002    0.005  246.413  246.559
 rebuild_ks_matrix                   37  6.9    0.000    0.000  133.162  133.197
 qs_ks_build_kohn_sham_matrix        37  7.9    0.006    0.006  133.162  133.197
 qs_ks_update_qs_env                 36  6.0    0.000    0.000  129.140  129.179
 pw_transfer                       1928 12.2    0.141    0.194   84.023   85.628
 fft_wrap_pw1pw2                   1928 13.2    0.018    0.024   83.882   85.484
 fft_wrap_pw1pw2_200               1706 14.4    5.678    6.859   82.736   84.332
 pw_poisson_solve                    37  8.9    0.004    0.009   72.201   72.238
 qs_scf_new_mos                      36  6.0    0.001    0.003   70.945   71.048
 fft3d_ps                          1928 15.2   24.248   27.037   67.351   69.837
 implicit_poisson_solver_mixed_      37  9.9    1.526    1.876   68.331   68.379
 eigensolver                         36  7.0    0.003    0.005   66.914   67.163
 derive_fft                         222 12.1    0.014    0.017   47.870   47.994
 cp_fm_diag_elpa                     38  8.1    0.000    0.001   47.326   47.447
 cp_fm_redistribute_end              38  9.1    6.281   46.891    6.362   46.931
 cp_fm_diag_elpa_base                38  9.0   39.969   45.863   40.347   46.264
 mp_alltoall_z22v                  1928 17.2   36.006   44.428   36.006   44.428
 qs_rho_update_rho_low               37  6.0    0.000    0.000   41.273   41.281
 calculate_rho_elec                  37  7.0    0.071    0.088   41.273   41.281
 apply_P_operator                   185 11.1    0.987    1.118   40.901   41.016
 sum_up_and_integrate                37  8.9    0.200    0.251   40.550   40.595
 integrate_v_rspace                  37  9.9    0.001    0.002   40.350   40.447
 grid_collocate_task_list            37  8.0   27.152   32.504   27.152   32.504
 grid_integrate_task_list            37 10.9   25.234   29.494   25.234   29.494
 x_to_yz                           1111 16.4    4.732    6.089   27.242   28.355
 cp_fm_triangular_multiply          108  8.0   21.066   21.337   21.066   21.337
 rs_pw_transfer                     300 10.4    0.004    0.004   17.784   20.586
 yz_to_x                            595 16.4    1.629    1.901   14.977   20.407
 qs_vxc_create                       37  8.9    0.001    0.002   18.244   18.466
 xc_vxc_pw_create                    37  9.9    0.316    0.391   18.243   18.465
 density_rs2pw                       37  8.0    0.002    0.003   13.271   16.160
 xc_pw_derive                       222 11.9    0.003    0.004   12.840   14.284
 apply_poisson_operator_fft          37 10.9    0.000    0.001   11.961   12.196
 apply_inv_laplace_operator_fft     113 11.6    0.277    0.329   11.099   11.497
 potential_pw2rs                     37 10.9    0.011    0.012   10.459   10.540
 mp_waitany                       13716 12.3    7.526   10.529    7.526   10.529
 rs_pw_transfer_RS2PW_200            39  9.9    2.569    2.831    7.698   10.527
 xc_pw_divergence                    37 10.9    0.002    0.002    8.688    9.732
 xc_rho_set_and_dset_create          37 10.9    0.184    0.209    8.908    9.431
 ps_implicit_compute_error_fft       74 10.9    0.465    0.563    8.170    8.750
 mp_alltoall_d11v                   540 10.3    5.797    8.301    5.797    8.301
 ps_implicit_compute_veps            37 10.9    0.215    0.254    8.174    8.298
 pw_scatter_p                      1222 15.4    6.899    8.280    6.899    8.280
 rs_gather_matrices                  37 10.9    0.046    0.056    4.643    7.079
 rs_pw_transfer_PW2RS_200            39 12.7    2.960    3.103    6.142    6.332
 pw_derive                          888 13.0    5.619    5.983    5.619    5.983
 gspace_mixing                       35  6.0    0.067    0.081    5.979    5.981
 scf_post_calculation_gpw             1  4.0    0.000    0.001    5.623    5.629
 write_available_results              1  5.0    0.000    0.000    5.623    5.629
 -------------------------------------------------------------------------------

 The number of warnings for this run is : 1
 
 -------------------------------------------------------------------------------
  **** **** ******  **  PROGRAM ENDED AT                 2023-12-03 06:36:40.702
 ***** ** ***  *** **   PROGRAM RAN ON                                     cu001
 **    ****   ******    PROGRAM RAN BY                                     jxzhu
 ***** **    ** ** **   PROGRAM PROCESS ID                                 43449
  **** **  *******  **  PROGRAM STOPPED IN /public/home/jxzhu/tmp_calc/b37ebc9e3
                                           c135a7b92f6028da4045b4d6ba2980a/calc/
                                           002900.000/search_lo.000000
