 DBCSR| CPU Multiplication driver                                           XSMM
 DBCSR| Multrec recursion limit                                              512
 DBCSR| Multiplication stack size                                           1000
 DBCSR| Maximum elements for images                                    UNLIMITED
 DBCSR| Multiplicative factor virtual images                                   1
 DBCSR| Use multiplication densification                                       T
 DBCSR| Multiplication size stacks                                             3
 DBCSR| Use memory pool for CPU allocation                                     F
 DBCSR| Number of 3D layers                                               SINGLE
 DBCSR| Use MPI memory allocation                                              F
 DBCSR| Use RMA algorithm                                                      F
 DBCSR| Use Communication thread                                               T
 DBCSR| Communication thread load                                             87
 DBCSR| MPI: My node id                                                        0
 DBCSR| MPI: Number of nodes                                                 128
 DBCSR| OMP: Current number of threads                                         1
 DBCSR| OMP: Max number of threads                                             1
 DBCSR| Split modifier for TAS multiplication algorithm                  1.0E+00


  **** **** ******  **  PROGRAM STARTED AT               2023-12-02 14:48:22.173
 ***** ** ***  *** **   PROGRAM STARTED ON                                 cu098
 **    ****   ******    PROGRAM STARTED BY                                 jxzhu
 ***** **    ** ** **   PROGRAM PROCESS ID                                 23378
  **** **  *******  **  PROGRAM STARTED IN /public/home/jxzhu/tmp_calc/fe9ece217
                                           ef1df1da3e29ecf0cd42fb4d2b613c0/calc/
                                           001700.000/search_lo.000000

 CP2K| version string:                                       CP2K version 2022.1
 CP2K| source code revision number:                                  git:2caeb6f
 CP2K| cp2kflags: omp libint fftw3 libxc elpa parallel mpi3 scalapack cosma xsmm
 CP2K|             plumed2 spglib mkl sirius libvori libbqb
 CP2K| is freely available from                            https://www.cp2k.org/
 CP2K| Program compiled at                           Mon Jul 3 17:37:06 CST 2023
 CP2K| Program compiled on                                                 mu003
 CP2K| Program compiled for                                                local
 CP2K| Data directory path                             /public/home/jxzhu/basis/
 CP2K| Input file name                                                 input.inp
 
 GLOBAL| Force Environment number                                              1
 GLOBAL| Basis set file name                                        BASIS_MOLOPT
 GLOBAL| Potential file name                                      GTH_POTENTIALS
 GLOBAL| MM Potential file name                                     MM_POTENTIAL
 GLOBAL| Coordinate file name                                          coord.xyz
 GLOBAL| Method name                                                        CP2K
 GLOBAL| Project name                                                       cp2k
 GLOBAL| Run type                                                   ENERGY_FORCE
 GLOBAL| FFT library                                                       FFTW3
 GLOBAL| Diagonalization library                                            ELPA
 GLOBAL| Minimum number of eigenvectors for ELPA usage                        16
 GLOBAL| Orthonormality check for eigenvectors                          DISABLED
 GLOBAL| Matrix multiplication library                                     COSMA
 GLOBAL| All-to-all communication in single precision                          F
 GLOBAL| FFTs using library dependent lengths                                  T
 GLOBAL| Grid backend                                                       AUTO
 GLOBAL| Global print level                                               MEDIUM
 GLOBAL| MPI I/O enabled                                                       T
 GLOBAL| Total number of message passing processes                           128
 GLOBAL| Number of threads for this process                                    1
 GLOBAL| This output is from process                                           0
 GLOBAL| Stack size for threads created by OpenMP (OMP_STACKSIZE)        default
 GLOBAL| CPU model name                 Intel(R) Xeon(R) Gold 6338 CPU @ 2.00GHz
 GLOBAL| CPUID                                                              1003

 MEMORY| system memory details [Kb]
 MEMORY|                        rank 0           min           max       average
 MEMORY| MemTotal            263619172     263619172     263619172     263619172
 MEMORY| MemFree             222694880     222694824     223813780     223252644
 MEMORY| Buffers                    28            28          3320          1674
 MEMORY| Cached                1869508       1324048       1869508       1596778
 MEMORY| Slab                  1313936       1217888       1313936       1265912
 MEMORY| SReclaimable           227376        227376        251832        239604
 MEMORY| MemLikelyFree       224791792     224791736     225392980     225090700


 *** Fundamental physical constants (SI units) ***

 *** Literature: B. J. Mohr and B. N. Taylor,
 ***             CODATA recommended values of the fundamental physical
 ***             constants: 2006, Web Version 5.1
 ***             http://physics.nist.gov/constants

 Speed of light in vacuum [m/s]                             2.99792458000000E+08
 Magnetic constant or permeability of vacuum [N/A**2]       1.25663706143592E-06
 Electric constant or permittivity of vacuum [F/m]          8.85418781762039E-12
 Planck constant (h) [J*s]                                  6.62606896000000E-34
 Planck constant (h-bar) [J*s]                              1.05457162825177E-34
 Elementary charge [C]                                      1.60217648700000E-19
 Electron mass [kg]                                         9.10938215000000E-31
 Electron g factor [ ]                                     -2.00231930436220E+00
 Proton mass [kg]                                           1.67262163700000E-27
 Fine-structure constant                                    7.29735253760000E-03
 Rydberg constant [1/m]                                     1.09737315685270E+07
 Avogadro constant [1/mol]                                  6.02214179000000E+23
 Boltzmann constant [J/K]                                   1.38065040000000E-23
 Atomic mass unit [kg]                                      1.66053878200000E-27
 Bohr radius [m]                                            5.29177208590000E-11

 *** Conversion factors ***

 [u] -> [a.u.]                                              1.82288848426455E+03
 [Angstrom] -> [Bohr] = [a.u.]                              1.88972613288564E+00
 [a.u.] = [Bohr] -> [Angstrom]                              5.29177208590000E-01
 [a.u.] -> [s]                                              2.41888432650478E-17
 [a.u.] -> [fs]                                             2.41888432650478E-02
 [a.u.] -> [J]                                              4.35974393937059E-18
 [a.u.] -> [N]                                              8.23872205491840E-08
 [a.u.] -> [K]                                              3.15774647902944E+05
 [a.u.] -> [kJ/mol]                                         2.62549961709828E+03
 [a.u.] -> [kcal/mol]                                       6.27509468713739E+02
 [a.u.] -> [Pa]                                             2.94210107994716E+13
 [a.u.] -> [bar]                                            2.94210107994716E+08
 [a.u.] -> [atm]                                            2.90362800883016E+08
 [a.u.] -> [eV]                                             2.72113838565563E+01
 [a.u.] -> [Hz]                                             6.57968392072181E+15
 [a.u.] -> [1/cm] (wave numbers)                            2.19474631370540E+05
 [a.u./Bohr**2] -> [1/cm]                                   5.14048714338585E+03
 

 CELL_TOP| Volume [angstrom^3]:                                     17614.982639
 CELL_TOP| Vector a [angstrom    16.869     0.000     0.000   |a| =    16.869000
 CELL_TOP| Vector b [angstrom    -8.434    14.609     0.000   |b| =    16.869015
 CELL_TOP| Vector c [angstrom     0.000     0.000    71.478   |c| =    71.478000
 CELL_TOP| Angle (b,c), alpha [degree]:                                90.000000
 CELL_TOP| Angle (a,c), beta  [degree]:                                90.000000
 CELL_TOP| Angle (a,b), gamma [degree]:                               119.999970
 CELL_TOP| Numerically orthorhombic:                                          NO
 
 GENERATE|  Preliminary Number of Bonds generated:                             0
 GENERATE|  Achieved consistency in connectivity generation.

 CELL| Volume [angstrom^3]:                                         17614.982639
 CELL| Vector a [angstrom]:      16.869     0.000     0.000   |a| =    16.869000
 CELL| Vector b [angstrom]:      -8.434    14.609     0.000   |b| =    16.869015
 CELL| Vector c [angstrom]:       0.000     0.000    71.478   |c| =    71.478000
 CELL| Angle (b,c), alpha [degree]:                                    90.000000
 CELL| Angle (a,c), beta  [degree]:                                    90.000000
 CELL| Angle (a,b), gamma [degree]:                                   119.999970
 CELL| Numerically orthorhombic:                                              NO

 CELL_REF| Volume [angstrom^3]:                                     17614.982639
 CELL_REF| Vector a [angstrom    16.869     0.000     0.000   |a| =    16.869000
 CELL_REF| Vector b [angstrom    -8.434    14.609     0.000   |b| =    16.869015
 CELL_REF| Vector c [angstrom     0.000     0.000    71.478   |c| =    71.478000
 CELL_REF| Angle (b,c), alpha [degree]:                                90.000000
 CELL_REF| Angle (a,c), beta  [degree]:                                90.000000
 CELL_REF| Angle (a,b), gamma [degree]:                               119.999970
 CELL_REF| Numerically orthorhombic:                                          NO

 *******************************************************************************
 *******************************************************************************
 **                                                                           **
 **     #####                         ##              ##                      **
 **    ##   ##            ##          ##              ##                      **
 **   ##     ##                       ##            ######                    **
 **   ##     ##  ##   ##  ##   #####  ##  ##   ####   ##    #####    #####    **
 **   ##     ##  ##   ##  ##  ##      ## ##   ##      ##   ##   ##  ##   ##   **
 **   ##  ## ##  ##   ##  ##  ##      ####     ###    ##   ######   ######    **
 **    ##  ###   ##   ##  ##  ##      ## ##      ##   ##   ##       ##        **
 **     #######   #####   ##   #####  ##  ##  ####    ##    #####   ##        **
 **           ##                                                    ##        **
 **                                                                           **
 **                                                ... make the atoms dance   **
 **                                                                           **
 **            Copyright (C) by CP2K developers group (2000-2022)             **
 **                      J. Chem. Phys. 152, 194103 (2020)                    **
 **                                                                           **
 *******************************************************************************

 DFT| Spin restricted Kohn-Sham (RKS) calculation                            RKS
 DFT| Multiplicity                                                             1
 DFT| Number of spin states                                                    1
 DFT| Charge                                                                   0
 DFT| Self-interaction correction (SIC)                                       NO
 DFT| Cutoffs: density                                              1.000000E-10
 DFT|          gradient                                             1.000000E-10
 DFT|          tau                                                  1.000000E-10
 DFT|          cutoff_smoothing_range                               0.000000E+00
 DFT| XC density smoothing                                                  NONE
 DFT| XC derivatives                                                          PW

 FUNCTIONAL| PBE:
 FUNCTIONAL| J.P.Perdew, K.Burke, M.Ernzerhof, Phys. Rev. Letter, vol. 77, n 18,
 FUNCTIONAL|  pp. 3865-3868, (1996){spin unpolarized}                           

 vdW POTENTIAL|                                                   Pair Potential
 vdW POTENTIAL|          DFT-D3 (Version 3.1)
 vdW POTENTIAL|          Potential Form: S. Grimme et al, JCP 132: 154104 (2010)
 vdW POTENTIAL|          Zero Damping
 vdW POTENTIAL|          Cutoff Radius [Bohr]:                             20.00
 vdW POTENTIAL|          s6 Scaling Factor:                               1.0000
 vdW POTENTIAL|          sr6 Scaling Factor:                              1.2170
 vdW POTENTIAL|          s8 Scaling Factor:                               0.7220
 vdW POTENTIAL|          Cutoff for CN calculation:                   0.1000E-05

 QS| Method:                                                                 GPW
 QS| Density plane wave grid type                        NON-SPHERICAL FULLSPACE
 QS| Number of grid levels:                                                    4
 QS| Density cutoff [a.u.]:                                                200.0
 QS| Multi grid cutoff [a.u.]: 1) grid level                               200.0
 QS|                           2) grid level                                66.7
 QS|                           3) grid level                                22.2
 QS|                           4) grid level                                 7.4
 QS| Grid level progression factor:                                          3.0
 QS| Relative density cutoff [a.u.]:                                        20.0
 QS| Interaction thresholds: eps_pgf_orb:                                3.2E-07
 QS|                         eps_filter_matrix:                          0.0E+00
 QS|                         eps_core_charge:                            1.0E-15
 QS|                         eps_rho_gspace:                             1.0E-13
 QS|                         eps_rho_rspace:                             1.0E-13
 QS|                         eps_gvg_rspace:                             3.2E-07
 QS|                         eps_ppl:                                    1.0E-02
 QS|                         eps_ppnl:                                   3.2E-09


 ATOMIC KIND INFORMATION

  1. Atomic kind: O                                     Number of atoms:      98

     Orbital Basis Set                                        DZVP-MOLOPT-SR-GTH

       Number of orbital shell sets:                                           1
       Number of orbital shells:                                               5
       Number of primitive Cartesian functions:                                5
       Number of Cartesian basis functions:                                   14
       Number of spherical basis functions:                                   13
       Norm type:                                                              2

       Normalised Cartesian orbitals:

                        Set   Shell   Orbital            Exponent    Coefficient

                          1       1    2s               10.389228       0.396646
                                                         3.849621       0.208811
                                                         1.388401      -0.301641
                                                         0.496955      -0.274061
                                                         0.162492      -0.033677

                          1       2    3s               10.389228       0.303673
                                                         3.849621       0.240943
                                                         1.388401      -0.313066
                                                         0.496955      -0.043055
                                                         0.162492       0.213991

                          1       3    3px              10.389228      -1.530415
                                                         3.849621      -1.371928
                                                         1.388401      -0.761951
                                                         0.496955      -0.253695
                                                         0.162492      -0.035541
                          1       3    3py              10.389228      -1.530415
                                                         3.849621      -1.371928
                                                         1.388401      -0.761951
                                                         0.496955      -0.253695
                                                         0.162492      -0.035541
                          1       3    3pz              10.389228      -1.530415
                                                         3.849621      -1.371928
                                                         1.388401      -0.761951
                                                         0.496955      -0.253695
                                                         0.162492      -0.035541

                          1       4    4px              10.389228      -0.565392
                                                         3.849621      -0.038231
                                                         1.388401      -0.382373
                                                         0.496955       0.179070
                                                         0.162492       0.122714
                          1       4    4py              10.389228      -0.565392
                                                         3.849621      -0.038231
                                                         1.388401      -0.382373
                                                         0.496955       0.179070
                                                         0.162492       0.122714
                          1       4    4pz              10.389228      -0.565392
                                                         3.849621      -0.038231
                                                         1.388401      -0.382373
                                                         0.496955       0.179070
                                                         0.162492       0.122714

                          1       5    4dx2             10.389228       1.867377
                                                         3.849621       0.670994
                                                         1.388401       1.353441
                                                         0.496955       0.273538
                                                         0.162492       0.006620
                          1       5    4dxy             10.389228       3.234392
                                                         3.849621       1.162195
                                                         1.388401       2.344229
                                                         0.496955       0.473781
                                                         0.162492       0.011466
                          1       5    4dxz             10.389228       3.234392
                                                         3.849621       1.162195
                                                         1.388401       2.344229
                                                         0.496955       0.473781
                                                         0.162492       0.011466
                          1       5    4dy2             10.389228       1.867377
                                                         3.849621       0.670994
                                                         1.388401       1.353441
                                                         0.496955       0.273538
                                                         0.162492       0.006620
                          1       5    4dyz             10.389228       3.234392
                                                         3.849621       1.162195
                                                         1.388401       2.344229
                                                         0.496955       0.473781
                                                         0.162492       0.011466
                          1       5    4dz2             10.389228       1.867377
                                                         3.849621       0.670994
                                                         1.388401       1.353441
                                                         0.496955       0.273538
                                                         0.162492       0.006620

       Atomic covalent radius [Angstrom]:                                  0.730

       Atomic van der Waals radius [Angstrom]:                             1.520

     GTH Potential information for                                    GTH-PBE-q6

       Description:                       Goedecker-Teter-Hutter pseudopotential
                                           Goedecker et al., PRB 54, 1703 (1996)
                                          Hartwigsen et al., PRB 58, 3641 (1998)
                                                      Krack, TCA 114, 145 (2005)

       Gaussian exponent of the core charge distribution:               8.360253
       Electronic configuration (s p d ...):                               2   4

       Parameters of the local part of the GTH pseudopotential:

                          rloc        C1          C2          C3          C4
                        0.244554  -16.667215    2.487311

       Parameters of the non-local part of the GTH pseudopotential:

                   l      r(l)      h(i,j,l)

                   0    0.220956   18.337458
                   1    0.211332

  2. Atomic kind: H                                     Number of atoms:     196

     Orbital Basis Set                                        DZVP-MOLOPT-SR-GTH

       Number of orbital shell sets:                                           1
       Number of orbital shells:                                               3
       Number of primitive Cartesian functions:                                5
       Number of Cartesian basis functions:                                    5
       Number of spherical basis functions:                                    5
       Norm type:                                                              2

       Normalised Cartesian orbitals:

                        Set   Shell   Orbital            Exponent    Coefficient

                          1       1    2s               10.068468      -0.133023
                                                         2.680223      -0.177618
                                                         0.791502      -0.258419
                                                         0.239116      -0.107525
                                                         0.082193      -0.014019

                          1       2    3s               10.068468       0.344673
                                                         2.680223       1.819821
                                                         0.791502      -0.999069
                                                         0.239116       0.017430
                                                         0.082193       0.082660

                          1       3    3px              10.068468       0.155326
                                                         2.680223       0.367157
                                                         0.791502       0.311480
                                                         0.239116       0.080105
                                                         0.082193       0.033440
                          1       3    3py              10.068468       0.155326
                                                         2.680223       0.367157
                                                         0.791502       0.311480
                                                         0.239116       0.080105
                                                         0.082193       0.033440
                          1       3    3pz              10.068468       0.155326
                                                         2.680223       0.367157
                                                         0.791502       0.311480
                                                         0.239116       0.080105
                                                         0.082193       0.033440

       Atomic covalent radius [Angstrom]:                                  0.320

       Atomic van der Waals radius [Angstrom]:                             1.090

     GTH Potential information for                                    GTH-PBE-q1

       Description:                       Goedecker-Teter-Hutter pseudopotential
                                           Goedecker et al., PRB 54, 1703 (1996)
                                          Hartwigsen et al., PRB 58, 3641 (1998)
                                                      Krack, TCA 114, 145 (2005)

       Gaussian exponent of the core charge distribution:              12.500000
       Electronic configuration (s p d ...):                                   1

       Parameters of the local part of the GTH pseudopotential:

                          rloc        C1          C2          C3          C4
                        0.200000   -4.178900    0.724463

  3. Atomic kind: Pt                                    Number of atoms:     216

     Orbital Basis Set                      DZVP-A5-Q10-323-MOL-T1-DERIVED_SET-1

       Number of orbital shell sets:                                           1
       Number of orbital shells:                                               6
       Number of primitive Cartesian functions:                                5
       Number of Cartesian basis functions:                                   23
       Number of spherical basis functions:                                   20
       Norm type:                                                              2

       Normalised Cartesian orbitals:

                        Set   Shell   Orbital            Exponent    Coefficient

                          1       1    2s                2.521825       0.177473
                                                         1.453920      -0.063399
                                                         0.614053      -0.407089
                                                         0.232656       0.262254
                                                         0.074788       0.047371

                          1       2    3s                2.521825      -0.049056
                                                         1.453920       0.044904
                                                         0.614053      -0.009756
                                                         0.232656      -0.144709
                                                         0.074788       0.144085

                          1       3    3px               2.521825      -0.317572
                                                         1.453920       0.534826
                                                         0.614053      -0.489458
                                                         0.232656       0.245631
                                                         0.074788       0.018221
                          1       3    3py               2.521825      -0.317572
                                                         1.453920       0.534826
                                                         0.614053      -0.489458
                                                         0.232656       0.245631
                                                         0.074788       0.018221
                          1       3    3pz               2.521825      -0.317572
                                                         1.453920       0.534826
                                                         0.614053      -0.489458
                                                         0.232656       0.245631
                                                         0.074788       0.018221

                          1       4    4dx2              2.521825       3.008522
                                                         1.453920      -1.224251
                                                         0.614053       0.225691
                                                         0.232656       0.125144
                                                         0.074788      -0.015348
                          1       4    4dxy              2.521825       5.210912
                                                         1.453920      -2.120465
                                                         0.614053       0.390909
                                                         0.232656       0.216756
                                                         0.074788      -0.026584
                          1       4    4dxz              2.521825       5.210912
                                                         1.453920      -2.120465
                                                         0.614053       0.390909
                                                         0.232656       0.216756
                                                         0.074788      -0.026584
                          1       4    4dy2              2.521825       3.008522
                                                         1.453920      -1.224251
                                                         0.614053       0.225691
                                                         0.232656       0.125144
                                                         0.074788      -0.015348
                          1       4    4dyz              2.521825       5.210912
                                                         1.453920      -2.120465
                                                         0.614053       0.390909
                                                         0.232656       0.216756
                                                         0.074788      -0.026584
                          1       4    4dz2              2.521825       3.008522
                                                         1.453920      -1.224251
                                                         0.614053       0.225691
                                                         0.232656       0.125144
                                                         0.074788      -0.015348

                          1       5    5dx2              2.521825       0.698026
                                                         1.453920      -1.511486
                                                         0.614053      -0.335394
                                                         0.232656      -0.025564
                                                         0.074788      -0.002699
                          1       5    5dxy              2.521825       1.209017
                                                         1.453920      -2.617970
                                                         0.614053      -0.580920
                                                         0.232656      -0.044277
                                                         0.074788      -0.004674
                          1       5    5dxz              2.521825       1.209017
                                                         1.453920      -2.617970
                                                         0.614053      -0.580920
                                                         0.232656      -0.044277
                                                         0.074788      -0.004674
                          1       5    5dy2              2.521825       0.698026
                                                         1.453920      -1.511486
                                                         0.614053      -0.335394
                                                         0.232656      -0.025564
                                                         0.074788      -0.002699
                          1       5    5dyz              2.521825       1.209017
                                                         1.453920      -2.617970
                                                         0.614053      -0.580920
                                                         0.232656      -0.044277
                                                         0.074788      -0.004674
                          1       5    5dz2              2.521825       0.698026
                                                         1.453920      -1.511486
                                                         0.614053      -0.335394
                                                         0.232656      -0.025564
                                                         0.074788      -0.002699

                          1       6    6dx2              2.521825       0.831079
                                                         1.453920      -0.709226
                                                         0.614053      -0.137351
                                                         0.232656       0.068642
                                                         0.074788       0.011745
                          1       6    6dxy              2.521825       1.439472
                                                         1.453920      -1.228415
                                                         0.614053      -0.237899
                                                         0.232656       0.118891
                                                         0.074788       0.020343
                          1       6    6dxz              2.521825       1.439472
                                                         1.453920      -1.228415
                                                         0.614053      -0.237899
                                                         0.232656       0.118891
                                                         0.074788       0.020343
                          1       6    6dy2              2.521825       0.831079
                                                         1.453920      -0.709226
                                                         0.614053      -0.137351
                                                         0.232656       0.068642
                                                         0.074788       0.011745
                          1       6    6dyz              2.521825       1.439472
                                                         1.453920      -1.228415
                                                         0.614053      -0.237899
                                                         0.232656       0.118891
                                                         0.074788       0.020343
                          1       6    6dz2              2.521825       0.831079
                                                         1.453920      -0.709226
                                                         0.614053      -0.137351
                                                         0.232656       0.068642
                                                         0.074788       0.011745

       Atomic covalent radius [Angstrom]:                                  1.300

       Atomic van der Waals radius [Angstrom]:                             1.750

     GTH Potential information for                                   GTH-PBE-q10

       Description:                       Goedecker-Teter-Hutter pseudopotential
                                           Goedecker et al., PRB 54, 1703 (1996)
                                          Hartwigsen et al., PRB 58, 3641 (1998)
                                                      Krack, TCA 114, 145 (2005)

       Gaussian exponent of the core charge distribution:               1.317676
       Electronic configuration (s p d ...):                           1   0   9

       Parameters of the local part of the GTH pseudopotential:

                          rloc        C1          C2          C3          C4
                        0.616000   11.313635

       Parameters of the non-local part of the GTH pseudopotential:

                   l      r(l)      h(i,j,l)

                   0    0.550904    4.733491   -1.784594
                                   -1.784594    2.303901
                   1    0.674138    2.534798   -1.778066
                                   -1.778066    2.103836
                   2    0.457392   -7.264011    2.558665
                                    2.558665   -2.901253


 MOLECULE KIND INFORMATION


 All atoms are their own molecule, skipping detailed information


 TOTAL NUMBERS AND MAXIMUM NUMBERS

  Total number of            - Atomic kinds:                                   3
                             - Atoms:                                        510
                             - Shell sets:                                   510
                             - Shells:                                      2374
                             - Primitive Cartesian functions:               2550
                             - Cartesian basis functions:                   7320
                             - Spherical basis functions:                   6574

  Maximum angular momentum of- Orbital basis functions:                        2
                             - Local part of the GTH pseudopotential:          2
                             - Non-local part of the GTH pseudopotential:      4


 MODULE QUICKSTEP:  ATOMIC COORDINATES IN angstrom

 Atom  Kind  Element       X           Y           Z          Z(eff)       Mass
    1   1 O    8       1.810000  -12.120000   29.128000       6.0000     15.9994
    2   2 H    1       1.120000  -11.480000   29.477999       1.0000      1.0079
    3   2 H    1       1.740000  -13.000001   29.567999       1.0000      1.0079
    4   1 O    8       0.740000    0.170000   33.658000       6.0000     15.9994
    5   2 H    1       1.540000    0.640000   33.988000       1.0000      1.0079
    6   2 H    1       1.050000   -0.570000   33.027999       1.0000      1.0079
    7   1 O    8     -10.510000  -21.070002   35.338000       6.0000     15.9994
    8   2 H    1     -11.200000  -21.300001   35.987999       1.0000      1.0079
    9   2 H    1     -10.000000  -21.840000   35.017999       1.0000      1.0079
   10   1 O    8       5.240001    4.390000   30.057999       6.0000     15.9994
   11   2 H    1       5.750000    5.050000   30.597999       1.0000      1.0079
   12   2 H    1       4.950000    4.990000   29.338000       1.0000      1.0079
   13   1 O    8      10.650001   21.130001   33.867999       6.0000     15.9994
   14   2 H    1      11.090001   20.210001   34.157999       1.0000      1.0079
   15   2 H    1      11.470001   21.730001   33.777999       1.0000      1.0079
   16   1 O    8      -1.630000   31.550003   30.258000       6.0000     15.9994
   17   2 H    1      -1.500000   31.450003   31.217999       1.0000      1.0079
   18   2 H    1       5.810000   17.140001   30.117999       1.0000      1.0079
   19   1 O    8      23.860001   10.740000   33.537999       6.0000     15.9994
   20   2 H    1      24.350002   10.670000   32.647999       1.0000      1.0079
   21   2 H    1      23.820002    9.910001   34.018000       1.0000      1.0079
   22   1 O    8      -4.320000   11.630001   39.357999       6.0000     15.9994
   23   2 H    1      -4.980001   11.900001   38.677999       1.0000      1.0079
   24   2 H    1      -4.800000   11.360001   40.158000       1.0000      1.0079
   25   1 O    8      30.460003  -26.960001   35.648000       6.0000     15.9994
   26   2 H    1      29.720001  -27.180002   35.037999       1.0000      1.0079
   27   2 H    1      47.570004  -26.000002   35.607999       1.0000      1.0079
   28   1 O    8       5.800000   -0.450000   33.088000       6.0000     15.9994
   29   2 H    1      -2.980000   14.870001   32.517999       1.0000      1.0079
   30   2 H    1       6.170001   -0.080000   33.907999       1.0000      1.0079
   31   1 O    8     -11.460000  -45.790001   38.287999       6.0000     15.9994
   32   2 H    1     -10.630001  -46.370003   38.417999       1.0000      1.0079
   33   2 H    1     -11.110001  -45.010002   37.777999       1.0000      1.0079
   34   1 O    8      10.220001  -10.070001   31.258000       6.0000     15.9994
   35   2 H    1       9.660000  -10.310000   30.487999       1.0000      1.0079
   36   2 H    1      10.880001  -10.820000   31.237998       1.0000      1.0079
   37   1 O    8      -5.770000   13.650000   29.877999       6.0000     15.9994
   38   2 H    1      -5.500000   12.670001   29.767999       1.0000      1.0079
   39   2 H    1      -6.200000   13.810000   28.977999       1.0000      1.0079
   40   1 O    8       1.430000   -7.870001   32.767999       6.0000     15.9994
   41   2 H    1       2.130000   -8.470000   33.197999       1.0000      1.0079
   42   2 H    1       1.780000   -7.010000   33.148000       1.0000      1.0079
   43   1 O    8     -25.270002  -10.070001   29.267999       6.0000     15.9994
   44   2 H    1     -26.030003  -10.750000   29.377999       1.0000      1.0079
   45   2 H    1     -25.640001   -9.190001   29.547999       1.0000      1.0079
   46   1 O    8       4.090000   -7.060000   35.767999       6.0000     15.9994
   47   2 H    1       4.730000   -7.800000   36.008000       1.0000      1.0079
   48   2 H    1       3.280000   -7.360001   36.308000       1.0000      1.0079
   49   1 O    8      25.060001   -0.760000   31.997999       6.0000     15.9994
   50   2 H    1      25.470001   -1.570000   32.307999       1.0000      1.0079
   51   2 H    1       7.240000   -0.900000   32.327999       1.0000      1.0079
   52   1 O    8      -4.250000    7.440000   29.237999       6.0000     15.9994
   53   2 H    1      -5.210000    7.390000   29.347999       1.0000      1.0079
   54   2 H    1      -3.890000    6.710000   29.747999       1.0000      1.0079
   55   1 O    8      27.140003   12.780001   32.197999       6.0000     15.9994
   56   2 H    1      27.350002   13.220000   31.337999       1.0000      1.0079
   57   2 H    1      28.020000   12.560000   32.577999       1.0000      1.0079
   58   1 O    8     -21.960001    6.040000   39.718000       6.0000     15.9994
   59   2 H    1     -21.170002    6.550000   39.838001       1.0000      1.0079
   60   2 H    1     -22.230000    5.690000   40.597999       1.0000      1.0079
   61   1 O    8      16.260000   15.980000   33.787999       6.0000     15.9994
   62   2 H    1      16.520000   15.320001   33.127999       1.0000      1.0079
   63   2 H    1      16.930000   15.770000   34.487999       1.0000      1.0079
   64   1 O    8      11.880001    3.360000   38.558000       6.0000     15.9994
   65   2 H    1      12.790001    3.080000   38.447999       1.0000      1.0079
   66   2 H    1      11.970000    4.190001   38.988000       1.0000      1.0079
   67   1 O    8      12.200001  -10.550001   34.967999       6.0000     15.9994
   68   2 H    1      12.210001  -10.650001   35.987999       1.0000      1.0079
   69   2 H    1       3.410000    3.200000   34.758000       1.0000      1.0079
   70   1 O    8       1.530000   21.220001   29.888000       6.0000     15.9994
   71   2 H    1       1.550000   21.320002   30.857999       1.0000      1.0079
   72   2 H    1       0.910000   21.820002   29.527999       1.0000      1.0079
   73   1 O    8       2.430000    6.730001   37.918001       6.0000     15.9994
   74   2 H    1       1.980000    6.220000   37.308000       1.0000      1.0079
   75   2 H    1       1.770000    7.390000   38.358001       1.0000      1.0079
   76   1 O    8     -20.960003   32.220001   30.017999       6.0000     15.9994
   77   2 H    1      -4.780000   32.190002   29.317999       1.0000      1.0079
   78   2 H    1     -21.480000   31.840002   30.787999       1.0000      1.0079
   79   1 O    8       3.360000   -9.550000   34.218000       6.0000     15.9994
   80   2 H    1       3.490000  -10.080000   33.367999       1.0000      1.0079
   81   2 H    1       4.270000   -9.510000   34.687999       1.0000      1.0079
   82   1 O    8       6.140000   -4.690000   32.247999       6.0000     15.9994
   83   2 H    1       5.540000   -5.340000   32.657999       1.0000      1.0079
   84   2 H    1       6.010000   -4.860000   31.237998       1.0000      1.0079
   85   1 O    8       5.010000   -0.040000   36.347999       6.0000     15.9994
   86   2 H    1       4.330000   -0.560000   36.907999       1.0000      1.0079
   87   2 H    1       5.740000    0.400000   36.918000       1.0000      1.0079
   88   1 O    8       7.450001  -16.840002   30.067999       6.0000     15.9994
   89   2 H    1       7.310000  -16.820000   29.067999       1.0000      1.0079
   90   2 H    1       6.700000  -17.380001   30.287999       1.0000      1.0079
   91   1 O    8     -16.370001   37.470001   38.947999       6.0000     15.9994
   92   2 H    1     -16.220001   38.260002   39.498000       1.0000      1.0079
   93   2 H    1     -16.750000   37.750000   38.078000       1.0000      1.0079
   94   1 O    8       9.580001    1.210000   35.798000       6.0000     15.9994
   95   2 H    1       9.890000    2.150000   35.848000       1.0000      1.0079
   96   2 H    1      10.230000    0.710000   36.407999       1.0000      1.0079
   97   1 O    8     -31.610003  -11.010000   36.117999       6.0000     15.9994
   98   2 H    1     -30.930002  -10.910001   36.807999       1.0000      1.0079
   99   2 H    1     -31.170002  -10.500001   35.318000       1.0000      1.0079
  100   1 O    8      13.690001   14.590001   29.187999       6.0000     15.9994
  101   2 H    1      12.670001   14.560001   29.307999       1.0000      1.0079
  102   2 H    1      13.960000   13.640001   29.477999       1.0000      1.0079
  103   1 O    8      21.540001   -9.040001   31.298000       6.0000     15.9994
  104   2 H    1      12.670001    4.750000   30.857999       1.0000      1.0079
  105   2 H    1      22.440002   -9.340000   31.447999       1.0000      1.0079
  106   1 O    8      -0.820000  -16.720001   37.588001       6.0000     15.9994
  107   2 H    1      -1.320000  -16.070002   38.128000       1.0000      1.0079
  108   2 H    1      -1.140000  -17.610001   37.908000       1.0000      1.0079
  109   1 O    8      26.930000    9.410001   33.897999       6.0000     15.9994
  110   2 H    1      26.460001    9.310000   34.787999       1.0000      1.0079
  111   2 H    1      27.760000    9.820001   34.218000       1.0000      1.0079
  112   1 O    8       2.040000   -2.160000   37.777999       6.0000     15.9994
  113   2 H    1      18.120001   -2.730000   37.968000       1.0000      1.0079
  114   2 H    1       1.810000   -1.380000   38.328000       1.0000      1.0079
  115   1 O    8       7.220001   35.420002   33.617999       6.0000     15.9994
  116   2 H    1       8.190001   35.560001   33.357999       1.0000      1.0079
  117   2 H    1      23.940001   34.459999   33.758000       1.0000      1.0079
  118   1 O    8      -0.290000   -9.410001   36.677999       6.0000     15.9994
  119   2 H    1       0.350000  -10.120001   36.447999       1.0000      1.0079
  120   2 H    1      -0.530000   -9.530001   37.668001       1.0000      1.0079
  121   1 O    8      -5.020000    1.040000   33.838000       6.0000     15.9994
  122   2 H    1      -4.370000    0.330000   33.587999       1.0000      1.0079
  123   2 H    1      -5.580000    0.530000   34.437999       1.0000      1.0079
  124   1 O    8      11.700001  -12.060001   29.987999       6.0000     15.9994
  125   2 H    1      12.410001  -11.430000   29.897999       1.0000      1.0079
  126   2 H    1      11.420001  -12.430000   29.128000       1.0000      1.0079
  127   1 O    8       9.630001   -2.860000   32.947999       6.0000     15.9994
  128   2 H    1      10.540000   -2.920000   33.367999       1.0000      1.0079
  129   2 H    1       9.670001   -3.310000   32.048000       1.0000      1.0079
  130   1 O    8      20.570002   -3.910000   35.487999       6.0000     15.9994
  131   2 H    1      20.070002   -3.170000   35.908000       1.0000      1.0079
  132   2 H    1      29.480001   11.300000   34.858000       1.0000      1.0079
  133   1 O    8       6.190000   -5.390000   29.657999       6.0000     15.9994
  134   2 H    1       6.850000   -6.200000   29.597999       1.0000      1.0079
  135   2 H    1       5.500000   -5.630000   29.077999       1.0000      1.0079
  136   1 O    8      -6.770000   -2.390000   38.267999       6.0000     15.9994
  137   2 H    1      -6.210001   -2.870000   37.617999       1.0000      1.0079
  138   2 H    1      -7.610001   -2.130000   37.838001       1.0000      1.0079
  139   1 O    8      12.580000    7.850000   33.208000       6.0000     15.9994
  140   2 H    1      -4.380000    7.680000   34.208000       1.0000      1.0079
  141   2 H    1      12.560000    7.030000   32.708000       1.0000      1.0079
  142   1 O    8      22.340002   -6.800000   38.847999       6.0000     15.9994
  143   2 H    1      14.370001    8.510000   39.357999       1.0000      1.0079
  144   2 H    1      22.020000   -6.140000   38.138000       1.0000      1.0079
  145   1 O    8     -18.940001   12.000000   29.888000       6.0000     15.9994
  146   2 H    1     -18.850000   11.030001   29.767999       1.0000      1.0079
  147   2 H    1     -18.050001   12.230001   29.498000       1.0000      1.0079
  148   1 O    8     -17.510000    6.970000   30.057999       6.0000     15.9994
  149   2 H    1     -16.880001    7.220001   29.287999       1.0000      1.0079
  150   2 H    1     -17.040001    7.100000   30.987999       1.0000      1.0079
  151   1 O    8      -2.760000    5.000000   35.277999       6.0000     15.9994
  152   2 H    1      -2.460000    5.310000   36.238000       1.0000      1.0079
  153   2 H    1      -2.060000    5.310000   34.648000       1.0000      1.0079
  154   1 O    8      17.300001   24.880001   31.747999       6.0000     15.9994
  155   2 H    1      17.710001   24.560001   32.588000       1.0000      1.0079
  156   2 H    1      17.750000   25.760002   31.668000       1.0000      1.0079
  157   1 O    8       7.270000    5.330000   39.478000       6.0000     15.9994
  158   2 H    1       6.340000    5.030000   39.517999       1.0000      1.0079
  159   2 H    1       7.710000    4.620000   40.037999       1.0000      1.0079
  160   1 O    8      -1.060000   15.730000   37.548000       6.0000     15.9994
  161   2 H    1      -0.270000   15.660001   36.928000       1.0000      1.0079
  162   2 H    1      -1.120000   16.740000   37.808000       1.0000      1.0079
  163   1 O    8      13.820001   10.220001   37.497999       6.0000     15.9994
  164   2 H    1      13.340001   10.340000   36.687999       1.0000      1.0079
  165   2 H    1      13.490001   10.820000   38.218000       1.0000      1.0079
  166   1 O    8     -11.190001   10.050000   30.378000       6.0000     15.9994
  167   2 H    1     -10.680000    9.340000   30.777999       1.0000      1.0079
  168   2 H    1     -10.750000   10.080000   29.487999       1.0000      1.0079
  169   1 O    8       1.630000   14.480001   30.007999       6.0000     15.9994
  170   2 H    1       1.390000   14.320001   29.087999       1.0000      1.0079
  171   2 H    1       0.830000   14.180001   30.557999       1.0000      1.0079
  172   1 O    8       5.220000   13.670001   33.168000       6.0000     15.9994
  173   2 H    1       6.070001   13.660001   33.517999       1.0000      1.0079
  174   2 H    1       5.220000   13.870001   32.257999       1.0000      1.0079
  175   1 O    8      19.230001    6.750000   30.037999       6.0000     15.9994
  176   2 H    1      19.139999    5.870000   30.487999       1.0000      1.0079
  177   2 H    1      19.510000    6.520000   29.097999       1.0000      1.0079
  178   1 O    8     -25.080002    9.060000   36.338000       6.0000     15.9994
  179   2 H    1     -25.960003    8.770000   35.958000       1.0000      1.0079
  180   2 H    1     -24.600000    8.360001   36.848000       1.0000      1.0079
  181   1 O    8      20.020000   -3.600000   29.767999       6.0000     15.9994
  182   2 H    1      20.260000   -4.320000   30.308000       1.0000      1.0079
  183   2 H    1      20.010002   -3.900000   28.827999       1.0000      1.0079
  184   1 O    8       0.320000  -21.870001   32.497999       6.0000     15.9994
  185   2 H    1       0.430000  -21.010000   32.918000       1.0000      1.0079
  186   2 H    1       1.120000  -22.410002   32.747999       1.0000      1.0079
  187   1 O    8     -18.020000   -1.600000   34.678000       6.0000     15.9994
  188   2 H    1     -17.020000   -1.290000   34.497999       1.0000      1.0079
  189   2 H    1     -18.000000   -2.550000   34.367999       1.0000      1.0079
  190   1 O    8      -5.090000   -5.790000   30.878000       6.0000     15.9994
  191   2 H    1      -5.410000   -6.740000   30.557999       1.0000      1.0079
  192   2 H    1      12.700001   -5.510000   30.557999       1.0000      1.0079
  193   1 O    8       8.290001  -20.660000   29.607999       6.0000     15.9994
  194   2 H    1       8.690001  -20.110001   30.297999       1.0000      1.0079
  195   2 H    1       8.450001  -20.210001   28.748000       1.0000      1.0079
  196   1 O    8      14.510001   -0.030000   36.668000       6.0000     15.9994
  197   2 H    1      14.220000    0.790000   36.147999       1.0000      1.0079
  198   2 H    1      -2.000000   -0.580000   35.937999       1.0000      1.0079
  199   1 O    8     -10.060000  -26.910002   29.128000       6.0000     15.9994
  200   2 H    1     -10.850000  -26.190002   29.367999       1.0000      1.0079
  201   2 H    1     -10.460000  -27.840002   29.237999       1.0000      1.0079
  202   1 O    8       7.750000  -13.240002   38.388000       6.0000     15.9994
  203   2 H    1       7.210000  -13.680000   37.708000       1.0000      1.0079
  204   2 H    1       8.340000  -12.520000   38.027999       1.0000      1.0079
  205   1 O    8      12.300000  -11.100000   37.588001       6.0000     15.9994
  206   2 H    1      12.380000  -10.480001   38.347999       1.0000      1.0079
  207   2 H    1      12.260000  -11.990000   37.937999       1.0000      1.0079
  208   1 O    8     -21.700001   25.860003   34.537999       6.0000     15.9994
  209   2 H    1     -21.410000   25.030001   34.117999       1.0000      1.0079
  210   2 H    1     -21.160002   26.570000   34.097999       1.0000      1.0079
  211   1 O    8      16.280001    9.500000   36.737999       6.0000     15.9994
  212   2 H    1      15.340000    9.910001   36.997999       1.0000      1.0079
  213   2 H    1      16.470001    9.750000   35.837999       1.0000      1.0079
  214   1 O    8      22.980001    3.520000   33.587999       6.0000     15.9994
  215   2 H    1      23.630001    2.790000   33.787999       1.0000      1.0079
  216   2 H    1      22.450001    3.660000   34.458000       1.0000      1.0079
  217   1 O    8     -15.010000   10.830001   30.357999       6.0000     15.9994
  218   2 H    1     -14.540001    9.940001   30.458000       1.0000      1.0079
  219   2 H    1     -15.730000   10.780001   29.708000       1.0000      1.0079
  220   1 O    8       4.260000   -2.500000   33.247999       6.0000     15.9994
  221   2 H    1       4.790000   -1.590000   33.278000       1.0000      1.0079
  222   2 H    1       4.910000   -3.110000   32.907999       1.0000      1.0079
  223   1 O    8      -5.240001   16.030001   34.208000       6.0000     15.9994
  224   2 H    1      -4.640000   16.150002   33.447999       1.0000      1.0079
  225   2 H    1      -4.730000   15.470000   34.837999       1.0000      1.0079
  226   1 O    8      23.260002    6.720000   30.867999       6.0000     15.9994
  227   2 H    1      23.750000    7.280001   30.168000       1.0000      1.0079
  228   2 H    1      23.700001    6.700000   31.757999       1.0000      1.0079
  229   1 O    8     -13.990001   14.600000   37.638000       6.0000     15.9994
  230   2 H    1     -13.090000   14.240000   37.597999       1.0000      1.0079
  231   2 H    1     -14.420000   13.750001   37.898000       1.0000      1.0079
  232   1 O    8     -25.210001   21.510000   35.837999       6.0000     15.9994
  233   2 H    1     -25.690001   22.340002   35.668000       1.0000      1.0079
  234   2 H    1     -24.580002   21.330002   35.117999       1.0000      1.0079
  235   1 O    8      -2.050000    5.810000   37.548000       6.0000     15.9994
  236   2 H    1      -2.270000    6.580000   38.148000       1.0000      1.0079
  237   2 H    1      -1.190000    6.040000   37.108001       1.0000      1.0079
  238   1 O    8       4.120000   37.860001   33.608000       6.0000     15.9994
  239   2 H    1       5.050000   37.510002   33.808000       1.0000      1.0079
  240   2 H    1       4.010000   37.800003   32.657999       1.0000      1.0079
  241   1 O    8      36.060001   17.760002   32.347999       6.0000     15.9994
  242   2 H    1      35.940002   16.940001   32.918000       1.0000      1.0079
  243   2 H    1      35.090000   18.020000   32.117999       1.0000      1.0079
  244   1 O    8     -15.290001   -0.070000   39.257999       6.0000     15.9994
  245   2 H    1     -15.370001   -0.480000   40.177999       1.0000      1.0079
  246   2 H    1     -16.130001    0.260000   38.777999       1.0000      1.0079
  247   1 O    8     -15.070001   21.550003   37.437999       6.0000     15.9994
  248   2 H    1     -15.700001   20.870001   37.248000       1.0000      1.0079
  249   2 H    1     -14.540001   21.240002   38.267999       1.0000      1.0079
  250   1 O    8      25.230000   14.990001   29.307999       6.0000     15.9994
  251   2 H    1      24.600000   15.810001   29.487999       1.0000      1.0079
  252   2 H    1      24.890001   14.270000   29.837999       1.0000      1.0079
  253   1 O    8      -1.320000    5.010000   32.808000       6.0000     15.9994
  254   2 H    1      -0.740000    4.270000   32.607999       1.0000      1.0079
  255   2 H    1      -0.750000    5.790000   32.638000       1.0000      1.0079
  256   1 O    8     -12.190001    1.720000   32.007999       6.0000     15.9994
  257   2 H    1     -11.740000    2.480000   32.378000       1.0000      1.0079
  258   2 H    1     -12.780001    1.910000   31.247999       1.0000      1.0079
  259   1 O    8      -4.260000   -0.180000   30.497999       6.0000     15.9994
  260   2 H    1      -5.250000    0.030000   30.458000       1.0000      1.0079
  261   2 H    1      -3.780000    0.540000   30.088000       1.0000      1.0079
  262   1 O    8      16.540001   -3.350000   38.308000       6.0000     15.9994
  263   2 H    1      25.020000  -18.660000   37.647998       1.0000      1.0079
  264   2 H    1      16.850000   -3.730000   39.187999       1.0000      1.0079
  265   1 O    8       9.260000   18.210001   37.777999       6.0000     15.9994
  266   2 H    1      10.250001   18.010002   37.647998       1.0000      1.0079
  267   2 H    1       9.350000   18.540001   38.687999       1.0000      1.0079
  268   1 O    8      12.300000   15.830001   39.487998       6.0000     15.9994
  269   2 H    1      12.340001   16.310001   40.338001       1.0000      1.0079
  270   2 H    1      11.440001   15.290001   39.447999       1.0000      1.0079
  271   1 O    8     -24.960001    4.140000   30.267999       6.0000     15.9994
  272   2 H    1     -24.790001    5.150001   30.147999       1.0000      1.0079
  273   2 H    1     -25.840000    4.080000   29.827999       1.0000      1.0079
  274   1 O    8       5.760000   28.260002   39.687999       6.0000     15.9994
  275   2 H    1       5.150001   29.020002   39.628000       1.0000      1.0079
  276   2 H    1       5.150001   27.460001   39.758001       1.0000      1.0079
  277   1 O    8      -2.300000    3.610000   39.027999       6.0000     15.9994
  278   2 H    1      -1.890000    2.770000   38.728000       1.0000      1.0079
  279   2 H    1      -1.930000    4.340000   38.487998       1.0000      1.0079
  280   1 O    8      21.610001    8.160001   37.398000       6.0000     15.9994
  281   2 H    1      20.860003    7.530000   37.398000       1.0000      1.0079
  282   2 H    1      21.070002    8.970000   37.068000       1.0000      1.0079
  283   1 O    8      21.290001   12.150001   29.197999       6.0000     15.9994
  284   2 H    1      20.420000   11.820001   29.537999       1.0000      1.0079
  285   2 H    1      21.280001   13.100000   29.607999       1.0000      1.0079
  286   1 O    8      -8.480000  -34.210003   33.977999       6.0000     15.9994
  287   2 H    1      -7.900000  -33.490002   33.708000       1.0000      1.0079
  288   2 H    1      -9.330000  -34.150002   33.468000       1.0000      1.0079
  289   1 O    8      -4.880000   24.960001   37.158000       6.0000     15.9994
  290   2 H    1      -4.880000   25.210001   36.158000       1.0000      1.0079
  291   2 H    1      -4.030000   25.450001   37.388000       1.0000      1.0079
  292   1 O    8     -26.520002  -12.730000   32.927999       6.0000     15.9994
  293   2 H    1     -27.000000  -12.460001   33.717999       1.0000      1.0079
  294   2 H    1      -8.910000  -13.230000   33.328000       1.0000      1.0079
  295   3 Pt  78       1.710000    0.540000   15.190002      10.0000    195.0840
  296   3 Pt  78       4.370000    0.650000   15.060001      10.0000    195.0840
  297   3 Pt  78       7.120000    0.670000   15.110001      10.0000    195.0840
  298   3 Pt  78      10.150002    0.720000   15.260002      10.0000    195.0840
  299   3 Pt  78      12.970000    0.740000   15.270000      10.0000    195.0840
  300   3 Pt  78      15.740002    0.820000   15.200001      10.0000    195.0840
  301   3 Pt  78       3.100000    3.080000   15.360001      10.0000    195.0840
  302   3 Pt  78       5.850000    3.180000   15.309998      10.0000    195.0840
  303   3 Pt  78       8.730000    3.110000   15.330002      10.0000    195.0840
  304   3 Pt  78      11.480000    3.170000   15.350002      10.0000    195.0840
  305   3 Pt  78      14.250001    3.170000   15.209999      10.0000    195.0840
  306   3 Pt  78       0.290000    3.200000   15.220001      10.0000    195.0840
  307   3 Pt  78       4.420000    5.640000   15.209999      10.0000    195.0840
  308   3 Pt  78       7.230001    5.450000   15.139999      10.0000    195.0840
  309   3 Pt  78       9.980000    5.550000   15.150002      10.0000    195.0840
  310   3 Pt  78      12.850000    5.570001   15.169998      10.0000    195.0840
  311   3 Pt  78      -1.240000    5.540000   15.389999      10.0000    195.0840
  312   3 Pt  78       1.680000    5.570001   15.160000      10.0000    195.0840
  313   3 Pt  78       5.920000    7.930000   15.209999      10.0000    195.0840
  314   3 Pt  78       8.670000    7.950000   15.040001      10.0000    195.0840
  315   3 Pt  78      11.510000    8.000000   15.180000      10.0000    195.0840
  316   3 Pt  78      -2.540000    7.980001   15.290001      10.0000    195.0840
  317   3 Pt  78       0.240000    7.860000   15.070000      10.0000    195.0840
  318   3 Pt  78       2.860000    7.970000   15.090000      10.0000    195.0840
  319   3 Pt  78       7.190001   10.480001   15.090000      10.0000    195.0840
  320   3 Pt  78      10.010000   10.380001   15.000000      10.0000    195.0840
  321   3 Pt  78      -3.910000   10.420000   15.050003      10.0000    195.0840
  322   3 Pt  78      -1.110000   10.350000   15.190002      10.0000    195.0840
  323   3 Pt  78       1.720000   10.550001   15.239998      10.0000    195.0840
  324   3 Pt  78       4.490000   10.310000   15.250000      10.0000    195.0840
  325   3 Pt  78       8.640000   12.840000   15.029999      10.0000    195.0840
  326   3 Pt  78      -5.310000   12.750001   15.090000      10.0000    195.0840
  327   3 Pt  78      -2.620000   12.880001   15.009998      10.0000    195.0840
  328   3 Pt  78       0.120000   12.880001   15.340000      10.0000    195.0840
  329   3 Pt  78       3.050000   12.970000   15.150002      10.0000    195.0840
  330   3 Pt  78       5.950000   12.950001   15.290001      10.0000    195.0840
  331   3 Pt  78       0.250000    1.570000   17.470001      10.0000    195.0840
  332   3 Pt  78       3.080000    1.350000   17.560001      10.0000    195.0840
  333   3 Pt  78       5.920000    1.450000   17.570000      10.0000    195.0840
  334   3 Pt  78       8.740000    1.470000   17.520000      10.0000    195.0840
  335   3 Pt  78      11.510000    1.560000   17.630001      10.0000    195.0840
  336   3 Pt  78      14.370001    1.470000   17.590000      10.0000    195.0840
  337   3 Pt  78       1.580000    4.000000   17.579998      10.0000    195.0840
  338   3 Pt  78       4.400000    3.930000   17.560001      10.0000    195.0840
  339   3 Pt  78       7.200000    4.040000   17.570000      10.0000    195.0840
  340   3 Pt  78      10.010000    3.930000   17.639999      10.0000    195.0840
  341   3 Pt  78      12.820001    3.980000   17.700001      10.0000    195.0840
  342   3 Pt  78      -1.200000    3.910000   17.560001      10.0000    195.0840
  343   3 Pt  78       3.060000    6.350000   17.590000      10.0000    195.0840
  344   3 Pt  78       5.940001    6.350000   17.480000      10.0000    195.0840
  345   3 Pt  78       8.650001    6.420000   17.509998      10.0000    195.0840
  346   3 Pt  78      11.470001    6.360001   17.450001      10.0000    195.0840
  347   3 Pt  78      -2.590000    6.350000   17.570000      10.0000    195.0840
  348   3 Pt  78       0.260000    6.460000   17.570000      10.0000    195.0840
  349   3 Pt  78       4.430000    8.860001   17.550003      10.0000    195.0840
  350   3 Pt  78       7.240000    8.900001   17.490002      10.0000    195.0840
  351   3 Pt  78      10.060000    8.810000   17.459999      10.0000    195.0840
  352   3 Pt  78      -3.920000    8.790001   17.480000      10.0000    195.0840
  353   3 Pt  78      -1.150000    8.760000   17.610001      10.0000    195.0840
  354   3 Pt  78       1.740000    8.830000   17.490002      10.0000    195.0840
  355   3 Pt  78       5.850000   11.330000   17.610001      10.0000    195.0840
  356   3 Pt  78       8.650001   11.240001   17.410000      10.0000    195.0840
  357   3 Pt  78      -5.400000   11.120001   17.299999      10.0000    195.0840
  358   3 Pt  78      -2.540000   11.210001   17.439999      10.0000    195.0840
  359   3 Pt  78       0.250000   11.180000   17.599998      10.0000    195.0840
  360   3 Pt  78       3.050000   11.280001   17.570000      10.0000    195.0840
  361   3 Pt  78       7.350000   13.650000   17.540001      10.0000    195.0840
  362   3 Pt  78      -6.690001   13.540001   17.500000      10.0000    195.0840
  363   3 Pt  78      -3.960000   13.560000   17.450001      10.0000    195.0840
  364   3 Pt  78      -1.040000   13.740001   17.560001      10.0000    195.0840
  365   3 Pt  78       1.680000   13.670001   17.579998      10.0000    195.0840
  366   3 Pt  78       4.590000   13.690001   17.560001      10.0000    195.0840
  367   3 Pt  78      -8.260000   14.580001   19.810001      10.0000    195.0840
  368   3 Pt  78      -5.350000   14.440001   19.730000      10.0000    195.0840
  369   3 Pt  78      -2.610000   14.430000   19.889999      10.0000    195.0840
  370   3 Pt  78       0.150000   14.310001   19.919998      10.0000    195.0840
  371   3 Pt  78       2.990000   14.470000   19.910000      10.0000    195.0840
  372   3 Pt  78       5.850000   14.540001   20.020000      10.0000    195.0840
  373   3 Pt  78       1.570000    2.470000   19.820000      10.0000    195.0840
  374   3 Pt  78       4.410000    2.360000   19.870003      10.0000    195.0840
  375   3 Pt  78       7.210000    2.290000   19.889999      10.0000    195.0840
  376   3 Pt  78      10.000000    2.180000   19.900002      10.0000    195.0840
  377   3 Pt  78      12.930001    2.260000   19.910000      10.0000    195.0840
  378   3 Pt  78      -1.200000    2.330000   19.880001      10.0000    195.0840
  379   3 Pt  78       3.080000    4.790000   19.830002      10.0000    195.0840
  380   3 Pt  78       5.810000    4.770000   19.849998      10.0000    195.0840
  381   3 Pt  78       8.710001    4.880000   19.919998      10.0000    195.0840
  382   3 Pt  78      11.430000    4.730000   19.889999      10.0000    195.0840
  383   3 Pt  78      -2.610000    4.690000   19.940002      10.0000    195.0840
  384   3 Pt  78       0.190000    4.770000   19.889999      10.0000    195.0840
  385   3 Pt  78       4.470000    7.250000   19.810001      10.0000    195.0840
  386   3 Pt  78       7.250000    7.160000   19.840000      10.0000    195.0840
  387   3 Pt  78      10.050000    7.290000   19.820000      10.0000    195.0840
  388   3 Pt  78      -4.110000    7.150001   19.810001      10.0000    195.0840
  389   3 Pt  78      -1.170000    7.190001   19.930000      10.0000    195.0840
  390   3 Pt  78       1.640000    7.170000   19.860001      10.0000    195.0840
  391   3 Pt  78       5.790000    9.720000   19.860001      10.0000    195.0840
  392   3 Pt  78       8.680000    9.620001   19.730000      10.0000    195.0840
  393   3 Pt  78      -5.380001    9.700001   19.730000      10.0000    195.0840
  394   3 Pt  78      -2.640000    9.530001   19.770000      10.0000    195.0840
  395   3 Pt  78       0.360000    9.590000   19.860001      10.0000    195.0840
  396   3 Pt  78       3.010000    9.670001   19.910000      10.0000    195.0840
  397   3 Pt  78       7.260000   12.140001   19.870003      10.0000    195.0840
  398   3 Pt  78      -6.950001   12.080001   19.770000      10.0000    195.0840
  399   3 Pt  78      -4.020000   12.060001   19.860001      10.0000    195.0840
  400   3 Pt  78      -1.180000   11.990000   19.860001      10.0000    195.0840
  401   3 Pt  78       1.610000   12.090001   19.940002      10.0000    195.0840
  402   3 Pt  78       4.340000   12.130001   19.930000      10.0000    195.0840
  403   3 Pt  78       1.590000    0.740000   21.997999      10.0000    195.0840
  404   3 Pt  78       4.350000    0.620000   22.047999      10.0000    195.0840
  405   3 Pt  78       7.130001    0.640000   22.187999      10.0000    195.0840
  406   3 Pt  78       9.900001    0.740000   22.217999      10.0000    195.0840
  407   3 Pt  78      12.830001    0.650000   22.267999      10.0000    195.0840
  408   3 Pt  78      15.530001    0.670000   22.197999      10.0000    195.0840
  409   3 Pt  78       3.060000    3.040000   22.117999      10.0000    195.0840
  410   3 Pt  78       5.740000    3.120000   22.267999      10.0000    195.0840
  411   3 Pt  78       8.490001    3.250000   22.237999      10.0000    195.0840
  412   3 Pt  78      11.340000    3.130000   22.197999      10.0000    195.0840
  413   3 Pt  78      14.210001    3.070000   22.277999      10.0000    195.0840
  414   3 Pt  78       0.180000    3.070000   22.167999      10.0000    195.0840
  415   3 Pt  78       4.310000    5.620000   22.177999      10.0000    195.0840
  416   3 Pt  78       7.120000    5.670000   22.177999      10.0000    195.0840
  417   3 Pt  78       9.980000    5.680000   22.197999      10.0000    195.0840
  418   3 Pt  78      12.760000    5.490000   22.147999      10.0000    195.0840
  419   3 Pt  78      -1.150000    5.560000   22.147999      10.0000    195.0840
  420   3 Pt  78       1.650000    5.490000   22.147999      10.0000    195.0840
  421   3 Pt  78       5.790000    8.050001   22.187999      10.0000    195.0840
  422   3 Pt  78       8.580000    8.050001   22.157999      10.0000    195.0840
  423   3 Pt  78      11.420001    7.990000   22.107999      10.0000    195.0840
  424   3 Pt  78      -2.670000    7.950000   22.157999      10.0000    195.0840
  425   3 Pt  78       0.230000    7.900000   22.177999      10.0000    195.0840
  426   3 Pt  78       3.000000    8.010000   22.167999      10.0000    195.0840
  427   3 Pt  78       7.180000   10.530001   22.127999      10.0000    195.0840
  428   3 Pt  78       9.990001   10.450001   22.087999      10.0000    195.0840
  429   3 Pt  78      -4.020000   10.460000   22.107999      10.0000    195.0840
  430   3 Pt  78      -1.240000   10.330000   22.257999      10.0000    195.0840
  431   3 Pt  78       1.490000   10.470000   22.247999      10.0000    195.0840
  432   3 Pt  78       4.370000   10.390000   22.157999      10.0000    195.0840
  433   3 Pt  78       8.570001   12.920000   22.147999      10.0000    195.0840
  434   3 Pt  78      -5.550000   12.840000   21.917999      10.0000    195.0840
  435   3 Pt  78      -2.610000   12.800001   22.197999      10.0000    195.0840
  436   3 Pt  78       0.050000   12.820001   22.227999      10.0000    195.0840
  437   3 Pt  78       2.870000   12.910000   22.277999      10.0000    195.0840
  438   3 Pt  78       5.730000   12.860001   22.217999      10.0000    195.0840
  439   3 Pt  78       0.080000    1.610000   24.457999      10.0000    195.0840
  440   3 Pt  78       2.920000    1.460000   24.477999      10.0000    195.0840
  441   3 Pt  78       5.760000    1.470000   24.487999      10.0000    195.0840
  442   3 Pt  78       8.530001    1.500000   24.527999      10.0000    195.0840
  443   3 Pt  78      11.280001    1.440000   24.537999      10.0000    195.0840
  444   3 Pt  78      14.120001    1.530000   24.507999      10.0000    195.0840
  445   3 Pt  78       1.600000    3.920000   24.477999      10.0000    195.0840
  446   3 Pt  78       4.410000    4.070000   24.437999      10.0000    195.0840
  447   3 Pt  78       7.140000    4.130000   24.547999      10.0000    195.0840
  448   3 Pt  78      10.020000    4.050000   24.567999      10.0000    195.0840
  449   3 Pt  78      12.720001    4.010000   24.497999      10.0000    195.0840
  450   3 Pt  78      -1.290000    4.000000   24.537999      10.0000    195.0840
  451   3 Pt  78       2.920000    6.410000   24.557999      10.0000    195.0840
  452   3 Pt  78       5.660000    6.490001   24.497999      10.0000    195.0840
  453   3 Pt  78       8.550000    6.390000   24.497999      10.0000    195.0840
  454   3 Pt  78      11.420001    6.440001   24.477999      10.0000    195.0840
  455   3 Pt  78      -2.630000    6.420000   24.497999      10.0000    195.0840
  456   3 Pt  78       0.220000    6.350000   24.437999      10.0000    195.0840
  457   3 Pt  78       4.290000    8.880001   24.567999      10.0000    195.0840
  458   3 Pt  78       7.140000    8.840000   24.387999      10.0000    195.0840
  459   3 Pt  78       9.990001    8.850000   24.257999      10.0000    195.0840
  460   3 Pt  78      -4.060000    8.780001   24.417999      10.0000    195.0840
  461   3 Pt  78      -1.200000    8.720000   24.437999      10.0000    195.0840
  462   3 Pt  78       1.530000    8.870000   24.497999      10.0000    195.0840
  463   3 Pt  78       5.810000   11.280001   24.497999      10.0000    195.0840
  464   3 Pt  78       8.530001   11.320001   24.417999      10.0000    195.0840
  465   3 Pt  78      -5.490000   11.190001   24.347999      10.0000    195.0840
  466   3 Pt  78      -2.660000   11.180000   24.377999      10.0000    195.0840
  467   3 Pt  78       0.080000   11.280001   24.457999      10.0000    195.0840
  468   3 Pt  78       2.980000   11.200000   24.547999      10.0000    195.0840
  469   3 Pt  78       7.210000   13.790001   24.557999      10.0000    195.0840
  470   3 Pt  78      -6.910000   13.690001   24.337999      10.0000    195.0840
  471   3 Pt  78      -4.140000   13.650000   24.337999      10.0000    195.0840
  472   3 Pt  78      -1.380000   13.730000   24.527999      10.0000    195.0840
  473   3 Pt  78       1.510000   13.630000   24.577999      10.0000    195.0840
  474   3 Pt  78       4.250000   13.660001   24.587999      10.0000    195.0840
  475   3 Pt  78      -8.400001   14.490002   26.917999      10.0000    195.0840
  476   3 Pt  78      -5.550000   14.510001   26.697999      10.0000    195.0840
  477   3 Pt  78      -2.820000   14.480001   27.007999      10.0000    195.0840
  478   3 Pt  78       0.010000   14.520000   26.767999      10.0000    195.0840
  479   3 Pt  78       2.810000   14.570000   26.907999      10.0000    195.0840
  480   3 Pt  78       5.640000   14.510001   26.797999      10.0000    195.0840
  481   3 Pt  78       1.360000    2.260000   26.877999      10.0000    195.0840
  482   3 Pt  78       4.240000    2.270000   26.727999      10.0000    195.0840
  483   3 Pt  78       7.060000    2.370000   26.837999      10.0000    195.0840
  484   3 Pt  78       9.810000    2.430000   26.847999      10.0000    195.0840
  485   3 Pt  78      12.700001    2.370000   26.787999      10.0000    195.0840
  486   3 Pt  78      -1.350000    2.380000   26.777999      10.0000    195.0840
  487   3 Pt  78       2.840000    4.720000   26.827999      10.0000    195.0840
  488   3 Pt  78       5.580000    4.620000   26.807999      10.0000    195.0840
  489   3 Pt  78       8.530001    4.960000   26.847999      10.0000    195.0840
  490   3 Pt  78      11.300000    4.770000   26.887999      10.0000    195.0840
  491   3 Pt  78      -2.820000    4.710000   26.847999      10.0000    195.0840
  492   3 Pt  78       0.110000    4.830000   26.837999      10.0000    195.0840
  493   3 Pt  78       4.280000    7.110000   26.937999      10.0000    195.0840
  494   3 Pt  78       7.140000    7.170000   26.827999      10.0000    195.0840
  495   3 Pt  78       9.880000    7.220001   26.777999      10.0000    195.0840
  496   3 Pt  78      -4.100000    7.120000   26.807999      10.0000    195.0840
  497   3 Pt  78      -1.330000    7.230001   26.837999      10.0000    195.0840
  498   3 Pt  78       1.510000    7.220001   26.877999      10.0000    195.0840
  499   3 Pt  78       5.830000    9.660000   26.697999      10.0000    195.0840
  500   3 Pt  78       8.410000    9.670001   26.667999      10.0000    195.0840
  501   3 Pt  78      -5.580000    9.560000   26.708000      10.0000    195.0840
  502   3 Pt  78      -2.760000    9.540001   26.667999      10.0000    195.0840
  503   3 Pt  78       0.170000    9.670001   26.927999      10.0000    195.0840
  504   3 Pt  78       3.000000    9.610001   26.877999      10.0000    195.0840
  505   3 Pt  78       7.030000   12.130001   26.887999      10.0000    195.0840
[...]
 flops     5 x    13 x    96           5186438400       0.0%    100.0%      0.0%
 flops    20 x    13 x   116           5418304320       0.0%    100.0%      0.0%
 flops    13 x    20 x   116           5440864000       0.0%    100.0%      0.0%
 flops    13 x    32 x    13           5646363008       0.0%    100.0%      0.0%
 flops     5 x    20 x   116           5798144000       0.0%    100.0%      0.0%
 flops    20 x     5 x   116           5818560000       0.0%    100.0%      0.0%
 flops    13 x    13 x    96           6179137536       0.0%    100.0%      0.0%
 flops    13 x    32 x    20           8306072320       0.0%    100.0%      0.0%
 flops    20 x    32 x    13           8306072320       0.0%    100.0%      0.0%
 flops     5 x    32 x    20           8885504000       0.0%    100.0%      0.0%
 flops    20 x    32 x     5           8885504000       0.0%    100.0%      0.0%
 flops    20 x    13 x    96           8968227840       0.0%    100.0%      0.0%
 flops    13 x    20 x    96           9005568000       0.0%    100.0%      0.0%
 flops     5 x    20 x    96           9596928000       0.0%    100.0%      0.0%
 flops    20 x     5 x    96           9630720000       0.0%    100.0%      0.0%
 flops     5 x     5 x   128          35324889600       0.0%    100.0%      0.0%
 flops    13 x     5 x   128          44939614720       0.0%    100.0%      0.0%
 flops     5 x    13 x   128          44949132800       0.0%    100.0%      0.0%
 flops    20 x    20 x   116          47846937600       0.0%    100.0%      0.0%
 flops    13 x    13 x   128          53552525312       0.0%    100.0%      0.0%
 flops    20 x    32 x    20          72858009600       0.0%    100.0%      0.0%
 flops    20 x    13 x   128          77724641280       0.0%    100.0%      0.0%
 flops    13 x    20 x   128          78048256000       0.0%    100.0%      0.0%
 flops    20 x    20 x    96          79194931200       0.0%    100.0%      0.0%
 flops     5 x    20 x   128          83173376000       0.0%    100.0%      0.0%
 flops    20 x     5 x   128          83466240000       0.0%    100.0%      0.0%
 flops    20 x    20 x   128         686356070400       0.0%    100.0%      0.0%
 flops inhomo. stacks                           0       0.0%      0.0%      0.0%
 flops total                         1.534858E+12       0.0%    100.0%      0.0%
 flops max/rank                     13.409767E+09       0.0%    100.0%      0.0%
 matmuls inhomo. stacks                         0       0.0%      0.0%      0.0%
 matmuls total                           46089924       0.0%    100.0%      0.0%
 number of processed stacks                427996       0.0%    100.0%      0.0%
 average stack size                                     0.0     107.7       0.0
 marketing flops                     3.086247E+12
 -------------------------------------------------------------------------------
 # multiplications                             23
 max memory usage/rank               1.571459E+09
 # max total images/rank                        2
 # max 3D layers                                1
 # MPI messages exchanged                   85376
 MPI messages size (bytes):
  total size                        54.802072E+09
  min size                         284.928000E+03
  max size                           2.249200E+06
  average size                     641.890812E+03
 MPI breakdown and total messages size (bytes):
             size <=      128                   0                        0
       128 < size <=     8192                   0                        0
      8192 < size <=    32768                   0                        0
     32768 < size <=   131072                   0                        0
    131072 < size <=  4194304               85376              54802071424
   4194304 < size <= 16777216                   0                        0
  16777216 < size                               0                        0
 -------------------------------------------------------------------------------

 *** WARNING in dbcsr_mm.F:290 :: Using a non-square number of MPI ranks ***
 *** might lead to poor performance. Used ranks: 128 Suggested: 121 256  ***

 -------------------------------------------------------------------------------
 -                                                                             -
 -                      DBCSR MESSAGE PASSING PERFORMANCE                      -
 -                                                                             -
 -------------------------------------------------------------------------------
 ROUTINE             CALLS      AVE VOLUME [Bytes]
 MP_Bcast               46                     12.
 MP_Allreduce          264                     15.
 MP_Alltoall           637                 584307.
 MP_ISend             1472                 304701.
 MP_IRecv             1472                 298486.
 -------------------------------------------------------------------------------

 -------------------------------------------------------------------------------
 -                                                                             -
 -                                DBM STATISTICS                               -
 -                                                                             -
 -------------------------------------------------------------------------------
    M  x    N  x    K                                          COUNT     PERCENT
 -------------------------------------------------------------------------------

 -------------------------------------------------------------------------------
 -                                                                             -
 -                                GRID STATISTICS                              -
 -                                                                             -
 -------------------------------------------------------------------------------
 LP    KERNEL             BACKEND                              COUNT     PERCENT
 4     collocate general  REF                                8489376      22.44%
 4     integrate general  REF                                8359479      22.09%
 3     collocate general  REF                                5761539      15.23%
 3     integrate general  REF                                5703295      15.07%
 2     collocate general  REF                                4538415      11.99%
 2     integrate general  REF                                4322300      11.42%
 5     integrate general  REF                                 404256       1.07%
 0     collocate general  REF                                 130560       0.35%
 0     integrate general  REF                                  65280       0.17%
 1     integrate general  REF                                  65280       0.17%
 -------------------------------------------------------------------------------

 MEMORY| Estimated peak process memory [MiB]                                1745

 -------------------------------------------------------------------------------
 ----                             MULTIGRID INFO                            ----
 -------------------------------------------------------------------------------
 count for grid        1:        1093436          cutoff [a.u.]          200.00
 count for grid        2:        1088297          cutoff [a.u.]           66.67
 count for grid        3:         710352          cutoff [a.u.]           22.22
 count for grid        4:         548029          cutoff [a.u.]            7.41
 total gridlevel count  :        3440114

 -------------------------------------------------------------------------------
 -                                                                             -
 -                         MESSAGE PASSING PERFORMANCE                         -
 -                                                                             -
 -------------------------------------------------------------------------------

 ROUTINE             CALLS      AVE VOLUME [Bytes]
 MP_Group                4
 MP_Bcast             2147                 313703.
 MP_Allreduce         2966                  36179.
 MP_Sync                48
 MP_Alltoall          1282               18007114.
 MP_SendRecv           508                   6324.
 MP_ISendRecv        10668                  61740.
 MP_Wait             19170
 MP_comm_split          22
 MP_ISend             8020                 256571.
 MP_IRecv             8020                 256571.
 MP_Recv                61                1682944.
 MP_Write_All            3                1797408.
 -------------------------------------------------------------------------------


 -------------------------------------------------------------------------------
 -                                                                             -
 -                           R E F E R E N C E S                               -
 -                                                                             -
 -------------------------------------------------------------------------------
 
 CP2K version 2022.1, the CP2K developers group (2022).
 CP2K is freely available from https://www.cp2k.org/ .

 Kuehne,Thomas D.; Iannuzzi,Marcella; Del Ben,Mauro;
 Rybkin,Vladimir V.; Seewald,Patrick; Stein,Frederick; Laino,Teodoro;
 Khaliullin,Rustam Z.; Schuett,Ole; Schiffmann,Florian; Golze,Dorothea;
 Wilhelm,Jan; Chulkov,Sergey; Bani-Hashemian,Mohammad Hossein;
 Weber,Valery; Borstnik,Urban; Taillefumier,Mathieu;
 Jakobovits,Alice Shoshana; Lazzaro,Alfio; Pabst,Hans; Mueller,Tiziano;
 Schade,Robert; Guidon,Manuel; Andermatt,Samuel; Holmberg,Nico;
 Schenter,Gregory K.; Hehn,Anna; Bussy,Augustin; Belleflamme,Fabian;
 Tabacchi,Gloria; Gloess,Andreas; Lass,Michael; Bethune,Iain;
 Mundy,Christopher J.; Plessl,Christian; Watkins,Matt;
 VandeVondele,Joost; Krack,Matthias; Hutter,Juerg. 
 The Journal of Chemical Physics, 152 (19), (2020). 
 CP2K: An electronic structure and molecular dynamics software package -
 Quickstep: Efficient and accurate electronic structure calculations.
 https://doi.org/10.1063/5.0007045

 Goerigk, Lars; Hansen, Andreas; Bauer, Christoph; Ehrlich, Stephan;
 Najibi, Asim; Grimme, Stefan. , 19 (48), (2017). 
 A look at the density functional theory zoo with the advanced GMTKN55 database
 for general main group thermochemistry, kinetics and noncovalent interactions.
 https://doi.org/10.1039/C7CP04913G

 Bani-Hashemian, MH; Bruck, S; Luisier, M; VandeVondele, J. 
 JOURNAL OF CHEMICAL PHYSICS, 144 (4), 044113 (2016). 
 A generalized Poisson solver for first-principles device simulations.
 https://doi.org/10.1063/1.4940796

 Schuett, Ole; Messmer, Peter; Hutter, Juerg; VandeVondele, Joost. 
 Electronic Structure Calculations on Graphics Processing Units, John
 Wiley & Sons, Ltd, 173-190 (2016). 
 GPU-Accelerated Sparse Matrix-Matrix Multiplication for
 Linear Scaling Density Functional Theory.
 https://doi.org/10.1002/9781118670712.ch8

 Heinecke, A; Henry, G; Hutchinson, M; Pabst, H. 
 Proceedings of Intl. Supercomputing Conference, 981-991 (2016). 
 LIBXSMM: Accelerating Small Matrix Multiplications
 by Runtime Code Generation.
 https://doi.org/10.1109/SC.2016.83

 Borstnik, U; VandeVondele, J; Weber, V; Hutter, J. 
 PARALLEL COMPUTING, 40 (5-6), 47-58 (2014). 
 Sparse matrix multiplication: The distributed block-compressed sparse
 row library.
 https://doi.org/10.1016/j.parco.2014.03.012

 Hutter, J; Iannuzzi, M; Schiffmann, F; VandeVondele, J. 
 WIREs Comput Mol Sci., 4 (1), 15-25 (2014). 
 CP2K: atomistic simulations of condensed matter systems.
 https://doi.org/10.1002/wcms.1159

 Marek, A; Blum, V; Johanni, R; Havu, V; Lang, B; Auckenthaler, T;
 Heinecke, A; Bungartz, H; Lederer, H. 
 Journal of Physics: Condensed Matter, 26 (21), (2014). 
 The ELPA library: scalable parallel eigenvalue solutions for
 electronic structure
 theory and computational science.
 https://doi.org/10.1088/0953-8984/26/21/213201

 Grimme, S; Ehrlich, S; Goerigk, L. 
 JOURNAL OF COMPUTATIONAL CHEMISTRY, 32, 1456 (2011). 
 Effect of the damping function in dispersion corrected density functional theory.
 https://doi.org/10.1002/jcc.21759

 Grimme, S; Antony, J; Ehrlich, S; Krieg, H. 
 JOURNAL OF CHEMICAL PHYSICS, 132 (15), 154104 (2010). 
 A consistent and accurate ab initio parametrization of density
 functional dispersion correction (DFT-D) for the 94 elements H-Pu.
 https://doi.org/10.1063/1.3382344

 VandeVondele, J; Hutter, J. 
 JOURNAL OF CHEMICAL PHYSICS, 127 (11), 114105 (2007). 
 Gaussian basis sets for accurate calculations on molecular systems in
 gas and condensed phases.
 https://doi.org/10.1063/1.2770708

 Krack, M. 
 THEORETICAL CHEMISTRY ACCOUNTS, 114 (1-3), 145-152 (2005). 
 Pseudopotentials for H to Kr optimized for gradient-corrected
 exchange-correlation functionals.
 https://doi.org/10.1007/s00214-005-0655-y

 VandeVondele, J; Krack, M; Mohamed, F; Parrinello, M; Chassaing, T;
 Hutter, J. COMPUTER PHYSICS COMMUNICATIONS, 167 (2), 103-128 (2005). 
 QUICKSTEP: Fast and accurate density functional calculations using a
 mixed Gaussian and plane waves approach.
 https://doi.org/10.1016/j.cpc.2004.12.014

 Frigo, M; Johnson, SG. 
 PROCEEDINGS OF THE IEEE, 93 (2), 216-231 (2005). 
 The design and implementation of FFTW3.
 https://doi.org/10.1109/JPROC.2004.840301

 Hartwigsen, C; Goedecker, S; Hutter, J. 
 PHYSICAL REVIEW B, 58 (7), 3641-3662 (1998). 
 Relativistic separable dual-space Gaussian pseudopotentials from H to Rn.
 https://doi.org/10.1103/PhysRevB.58.3641

 Lippert, G; Hutter, J; Parrinello, M. 
 MOLECULAR PHYSICS, 92 (3), 477-487 (1997). 
 A hybrid Gaussian and plane wave density functional scheme.
 https://doi.org/10.1080/002689797170220

 Perdew, JP; Burke, K; Ernzerhof, M. 
 PHYSICAL REVIEW LETTERS, 77 (18), 3865-3868 (1996). 
 Generalized gradient approximation made simple.
 https://doi.org/10.1103/PhysRevLett.77.3865

 Goedecker, S; Teter, M; Hutter, J. 
 PHYSICAL REVIEW B, 54 (3), 1703-1710 (1996). 
 Separable dual-space Gaussian pseudopotentials.
 https://doi.org/10.1103/PhysRevB.54.1703


 -------------------------------------------------------------------------------
 -                                                                             -
 -                                T I M I N G                                  -
 -                                                                             -
 -------------------------------------------------------------------------------
 SUBROUTINE                       CALLS  ASD         SELF TIME        TOTAL TIME
                                MAXIMUM       AVERAGE  MAXIMUM  AVERAGE  MAXIMUM
 CP2K                                 1  1.0    0.019    0.031  153.375  153.376
 qs_forces                            1  2.0    0.002    0.002  153.061  153.062
 qs_energies                          1  3.0    0.000    0.000  146.880  146.890
 scf_env_do_scf                       1  4.0    0.000    0.000  137.787  137.926
 scf_env_do_scf_inner_loop           20  5.0    0.002    0.004  137.784  137.923
 rebuild_ks_matrix                   21  6.9    0.000    0.000   76.648   76.671
 qs_ks_build_kohn_sham_matrix        21  7.9    0.004    0.004   76.648   76.671
 qs_ks_update_qs_env                 20  6.0    0.000    0.000   72.555   72.578
 pw_transfer                       1096 12.1    0.080    0.100   48.558   49.414
 fft_wrap_pw1pw2                   1096 13.1    0.011    0.012   48.477   49.326
 fft_wrap_pw1pw2_200                970 14.4    3.230    3.832   47.840   48.678
 pw_poisson_solve                    21  8.9    0.002    0.005   41.340   41.365
 fft3d_ps                          1096 15.1   13.780   15.492   39.106   40.461
 qs_scf_new_mos                      20  6.0    0.001    0.004   39.547   39.615
 implicit_poisson_solver_mixed_      21  9.9    0.872    1.074   38.936   38.961
 eigensolver                         20  7.0    0.002    0.002   37.376   37.482
 derive_fft                         126 12.0    0.008    0.009   27.339   27.425
 cp_fm_diag_elpa                     22  8.1    0.000    0.000   27.218   27.288
 cp_fm_redistribute_end              22  9.1    3.663   26.979    3.705   27.004
 cp_fm_diag_elpa_base                22  9.1   22.956   26.397   23.170   26.608
 mp_alltoall_z22v                  1096 17.1   21.319   26.104   21.319   26.104
 qs_rho_update_rho_low               21  6.0    0.000    0.000   23.753   23.758
 calculate_rho_elec                  21  7.0    0.041    0.062   23.753   23.758
 sum_up_and_integrate                21  8.9    0.114    0.165   23.610   23.635
 integrate_v_rspace                  21  9.9    0.001    0.001   23.496   23.556
 apply_P_operator                   105 11.1    0.563    0.634   23.338   23.409
 grid_collocate_task_list            21  8.0   15.072   18.789   15.072   18.789
 grid_integrate_task_list            21 10.9   14.107   17.321   14.107   17.321
 x_to_yz                            631 16.3    2.676    3.440   16.280   16.957
 rs_pw_transfer                     172 10.4    0.002    0.003   11.108   13.424
 cp_fm_triangular_multiply           60  8.0   11.760   11.898   11.760   11.898
 yz_to_x                            339 16.4    0.928    1.085    8.560   11.659
 density_rs2pw                       21  8.0    0.001    0.002    8.281   10.672
 qs_vxc_create                       21  8.9    0.001    0.001   10.404   10.530
 xc_vxc_pw_create                    21  9.9    0.180    0.233   10.403   10.530
 xc_pw_derive                       126 11.9    0.002    0.002    7.333    8.132
 rs_pw_transfer_RS2PW_200            23  9.9    1.504    1.701    5.234    7.547
 mp_waitany                        8020 12.2    5.143    7.456    5.143    7.456
 apply_poisson_operator_fft          21 10.9    0.000    0.000    6.797    6.913
 apply_inv_laplace_operator_fft      65 11.6    0.163    0.196    6.315    6.539
 mp_alltoall_d11v                   316 10.2    3.965    6.089    3.965    6.089
 potential_pw2rs                     21 10.9    0.006    0.007    5.950    5.997
 scf_post_calculation_gpw             1  4.0    0.000    0.001    5.700    5.705
 write_available_results              1  5.0    0.000    0.000    5.699    5.705
 xc_pw_divergence                    21 10.9    0.001    0.001    4.955    5.562
 rs_gather_matrices                  21 10.9    0.025    0.032    3.428    5.522
 xc_rho_set_and_dset_create          21 10.9    0.105    0.122    5.070    5.392
 ps_implicit_compute_error_fft       42 10.9    0.264    0.327    4.635    4.961
 ps_implicit_compute_veps            21 10.9    0.123    0.145    4.689    4.766
 pw_scatter_p                       694 15.3    3.895    4.620    3.895    4.620
 qs_ks_update_qs_env_forces           1  3.0    0.000    0.000    4.130    4.130
 write_mo_dependent_results           1  6.0    0.000    0.000    2.573    3.799
 calculate_projected_dos              1  7.0    0.357    1.723    2.573    3.799
 rs_pw_transfer_PW2RS_200            23 12.5    1.739    1.820    3.633    3.739
 pw_derive                          504 13.0    3.200    3.400    3.200    3.400
 write_mo_free_results                1  6.0    0.263    0.371    3.126    3.138
 -------------------------------------------------------------------------------

 The number of warnings for this run is : 1
 
 -------------------------------------------------------------------------------
  **** **** ******  **  PROGRAM ENDED AT                 2023-12-02 14:51:00.017
 ***** ** ***  *** **   PROGRAM RAN ON                                     cu098
 **    ****   ******    PROGRAM RAN BY                                     jxzhu
 ***** **    ** ** **   PROGRAM PROCESS ID                                 23378
  **** **  *******  **  PROGRAM STOPPED IN /public/home/jxzhu/tmp_calc/fe9ece217
                                           ef1df1da3e29ecf0cd42fb4d2b613c0/calc/
                                           001700.000/search_lo.000000
